# vtk DataFile Version 2.0
3Dafter2_M1
ASCII
DATASET UNSTRUCTURED_GRID
POINTS 9125 float
     2.655962      1.761159     10.449856
     2.709854      1.753362     10.484660
     2.720952      1.740668     10.500911
     2.754439      1.747151     10.501973
     2.635950      1.751071     10.476841
     2.647889      1.746350     10.524381
     2.555845      1.763765     10.552127
     2.628308      1.736681     10.560366
     2.702586      1.735583     10.540875
     2.584069      1.752891     10.525445
     2.616040      1.748467     10.551725
     2.736036      1.747334     10.532570
     2.762625      1.739203     10.566207
     2.717493      1.731659     10.560881
     2.656409      1.721509     10.576211
     2.680876      1.729925     10.582851
     2.552393      1.752787     10.575515
     2.778434      1.731247     10.593358
     2.628394      1.731994     10.602634
     2.707709      1.714886     10.606796
     2.585302      1.748317     10.603367
     2.637482      1.723262     10.619564
     2.764832      1.724696     10.611983
     2.536520      1.751903     10.637320
     2.734519      1.722705     10.603779
     2.595162      1.737191     10.623721
     2.684648      1.714864     10.639798
     2.756604      1.718108     10.639021
     2.799003      1.731122     10.637799
     2.588776      1.735922     10.639795
     2.816117      1.981546      9.169655
     2.642433      2.009679      9.195453
     2.744087      1.983928      9.172100
     2.816075      1.972783      9.199458
     2.711558      1.990500      9.207280
     2.668008      1.997814      9.207438
     2.708540      1.978870      9.225478
     2.764312      1.980606      9.240013
     2.630122      2.004259      9.245146
     2.849072      1.964866      9.224149
     2.866659      1.975493      9.221505
     2.677911      1.997011      9.243319
     2.653430      1.987756      9.246768
     2.781645      1.965746      9.254330
     2.691123      1.982293      9.276197
     2.585635      2.011208      9.266471
     2.754499      1.971052      9.278979
     2.823339      1.969863      9.270387
     2.598735      2.011812      9.286320
     2.841751      1.977365      9.254519
     2.664631      1.986297      9.272700
     2.610170      1.995918      9.294866
     2.687491      1.971370      9.290276
     2.845397      1.961062      9.282835
     2.726908      1.968161      9.306980
     2.749745      1.960342      9.290639
     2.582115      2.001986      9.322679
     2.901098      1.968358      9.306992
     2.623386      1.981840      9.310297
     2.802083      1.955336      9.290143
     2.716053      1.966334      9.335381
     2.849829      1.959565      9.324810
     2.572658      1.997338      9.356946
     2.721253      1.953148      9.347677
     2.837856      1.955715      9.345138
     2.625164      1.985478      9.354704
     2.895444      1.957656      9.335134
     2.915139      1.972979      9.332949
     2.660558      1.975719      9.374779
     2.688029      1.955858      9.382995
     2.728208      1.953389      9.370834
     2.766909      1.957207      9.362760
     2.567516      2.003902      9.386605
     2.618490      1.977947      9.381385
     2.832583      1.945445      9.345455
     2.637267      1.966134      9.373188
     2.897318      1.950763      9.374284
     2.907059      1.966566      9.365235
     2.633763      1.963021      9.403601
     2.596335      1.984984      9.398378
     2.861965      1.951749      9.396965
     2.543821      2.020343      9.412107
     2.660983      1.964850      9.403090
     2.741906      1.949029      9.405778
     2.830299      1.933763      9.399791
     2.872270      1.962071      9.410212
     2.705568      1.950008      9.419991
     2.754814      1.942285      9.424517
     2.579107      1.975076      9.429793
     2.612755      1.970708      9.425033
     2.847493      1.941906      9.404477
     2.919021      1.961153      9.408317
     2.660232      1.951319      9.424953
     2.559339      1.990832      9.458964
     2.728130      1.954119      9.443763
     2.889593      1.946343      9.426466
     2.625534      1.955794      9.451143
     2.795451      1.940273      9.453288
     2.509378      2.025418      9.470205
     2.657754      1.939289      9.453549
     2.688918      1.946588      9.458149
     2.760982      1.933830      9.451359
     2.592020      1.972509      9.467897
     2.871524      1.951699      9.456888
     2.532493      2.009758      9.451645
     2.620441      1.943934      9.482531
     2.839007      1.939203      9.470731
     2.868872      1.932977      9.478280
     2.925277      1.959302      9.453474
     2.691210      1.933982      9.478972
     2.820198      1.923875      9.481670
     2.572792      1.974438      9.502655
     2.504668      2.022253      9.496778
     2.586704      1.961534      9.528409
     2.734838      1.938236      9.493427
     2.539830      1.998134      9.496539
     2.908426      1.936874      9.502344
     2.961697      1.959969      9.475414
     2.734924      1.927223      9.506199
     2.800931      1.927829      9.513237
     2.646981      1.928368      9.527301
     2.653032      1.939611      9.522009
     2.835429      1.929857      9.503153
     2.706864      1.931345      9.535938
     2.606764      1.946134      9.544182
     2.528740      1.991316      9.509445
     2.546575      1.983851      9.534849
     2.943999      1.949151      9.509782
     2.485841      2.015478      9.554963
     2.547612      1.968746      9.568080
     2.802576      1.916758      9.532123
     2.875627      1.934654      9.521723
     2.520127      1.991803      9.566564
     2.970842      1.962438      9.511619
     2.611442      1.932978      9.559313
     2.701928      1.919740      9.550288
     2.779225      1.920097      9.566809
     2.850283      1.915803      9.544992
     2.905497      1.922889      9.545241
     2.654892      1.941849      9.578101
     2.574755      1.949872      9.566240
     2.930886      1.936770      9.550368
     2.499066      2.015611      9.565189
     2.969206      1.955505      9.556571
     2.889768      1.928647      9.573940
     2.591845      1.935706      9.612756
     2.632925      1.930884      9.587312
     2.774336      1.909684      9.574937
     2.831786      1.924500      9.579958
     2.538260      1.988901      9.594662
     2.462633      2.027364      9.590488
     2.988344      1.947992      9.566925
     2.732246      1.916127      9.623658
     2.568699      1.951386      9.610367
     2.533864      1.973591      9.603071
     2.492698      1.995150      9.627282
     2.645495      1.917387      9.607552
     2.686587      1.912307      9.592674
     2.714868      1.918560      9.600202
     2.824906      1.907921      9.587047
     2.846496      1.910090      9.600321
     2.895313      1.916579      9.603105
     2.997085      1.964020      9.602948
     2.582642      1.925644      9.653117
     2.922575      1.926798      9.597456
     2.457727      2.018418      9.643209
     2.578858      1.947480      9.632564
     2.757447      1.900599      9.616280
     2.526002      1.973519      9.644905
     2.889431      1.906594      9.633024
     2.948872      1.944303      9.604057
     2.783508      1.907996      9.639634
     3.027731      1.980049      9.634988
     2.615480      1.920546      9.654981
     2.650154      1.915918      9.670657
     2.682945      1.897865      9.662692
     2.824850      1.901029      9.660313
     2.547305      1.951507      9.644469
     2.491257      1.985024      9.654210
     3.014712      1.948148      9.656897
     2.713134      1.907249      9.657585
     2.871909      1.907082      9.654366
     2.505170      1.980414      9.677634
     2.974613      1.947086      9.624642
     2.621038      1.908620      9.665463
     2.756938      1.896825      9.663735
     2.848366      1.909477      9.662763
     2.918214      1.922111      9.651959
     2.965364      1.937185      9.656191
     2.433937      2.025044      9.686838
     2.738100      1.906260      9.691013
     2.818559      1.890257      9.672295
     2.899052      1.912829      9.667058
     2.524731      1.967389      9.691949
     2.946083      1.924376      9.672407
     2.459641      2.017020      9.692365
     2.832287      1.901453      9.691732
     2.987207      1.942780      9.690129
     3.023803      1.950333      9.694687
     2.673091      1.899986      9.702554
     2.585308      1.919480      9.707493
     2.813935      1.890147      9.709147
     2.532809      1.946675      9.722698
     2.479125      1.991025      9.719061
     2.620634      1.907321      9.716529
     2.705020      1.884716      9.731580
     2.563698      1.927936      9.704649
     2.853138      1.892122      9.701188
     2.895888      1.910736      9.715745
     2.915462      1.921397      9.710672
     2.458449      2.000149      9.713009
     2.957330      1.927074      9.682218
     2.426632      2.021231      9.738163
     2.752142      1.889840      9.705773
     2.776761      1.897158      9.719227
     2.556669      1.924639      9.749968
     2.501162      1.966693      9.749572
     2.945953      1.928269      9.713805
     2.571090      1.913116      9.764149
     2.598620      1.904443      9.742232
     2.667668      1.897643      9.733268
     2.715276      1.894932      9.692029
     2.777012      1.885018      9.736119
     2.533518      1.951634      9.762737
     2.901387      1.900390      9.737885
     2.973368      1.926490      9.744481
     3.018058      1.957926      9.724565
     2.629311      1.895798      9.764609
     2.749115      1.885987      9.754183
     2.873801      1.891339      9.756141
     2.928772      1.907980      9.726048
     2.455407      2.001377      9.756178
     3.002734      1.942466      9.726341
     2.715915      1.883601      9.771452
     2.824645      1.888602      9.767350
[...]
POINT_DATA 9125
VECTORS U float
     0.034759     -0.009889     -0.029843
     0.023095     -0.001293     -0.030100
     0.019388      0.000386     -0.030351
     0.013074      0.005040     -0.030206
     0.038165     -0.010834     -0.030154
     0.035470     -0.005853     -0.030177
     0.056623     -0.011430     -0.029285
     0.038733     -0.006131     -0.030327
     0.022808      0.001249     -0.030383
     0.049161     -0.011861     -0.029740
     0.042528     -0.006933     -0.029996
     0.017006      0.005682     -0.030131
     0.010429      0.011394     -0.030225
     0.019283      0.004491     -0.030428
     0.031185     -0.002864     -0.030654
     0.026913      0.001621     -0.030397
     0.056339     -0.010723     -0.029451
     0.005694      0.015457     -0.030217
     0.038294     -0.003208     -0.030211
     0.019400      0.005624     -0.030552
     0.049036     -0.006053     -0.029652
     0.035369     -0.001658     -0.030298
     0.008064      0.014523     -0.030264
     0.059441     -0.008941     -0.029360
     0.014511      0.009605     -0.030385
     0.045676     -0.004625     -0.029839
     0.024215      0.005401     -0.030317
     0.008958      0.015259     -0.030219
     0.000414      0.022318     -0.029965
     0.046824     -0.004326     -0.029779
     0.006381     -0.014346      0.020450
     0.035047     -0.052571      0.016577
     0.018015     -0.030159      0.019197
     0.005037     -0.013205      0.019134
     0.023725     -0.036957      0.017216
     0.030137     -0.046446      0.016298
     0.022269     -0.036802      0.015971
     0.014579     -0.024336      0.016787
     0.035825     -0.054381      0.013788
    -0.001372     -0.004767      0.018753
    -0.002917     -0.001625      0.019411
     0.028939     -0.043940      0.014951
     0.030475     -0.048535      0.013865
     0.009585     -0.019448      0.016172
     0.025538     -0.039326      0.013494
     0.042093     -0.062833      0.011832
     0.015103     -0.025113      0.014665
     0.003788     -0.009620      0.016640
     0.041412     -0.059394      0.011461
     0.001901     -0.006043      0.017926
     0.029347     -0.045158      0.013055
     0.038024     -0.055912      0.011006
     0.024529     -0.039079      0.012495
    -0.001014     -0.004007      0.016421
     0.019413     -0.030284      0.012726
     0.014367     -0.025460      0.013744
     0.042482     -0.060250      0.009286
    -0.010278      0.007391      0.016600
     0.034594     -0.051858      0.010333
     0.005138     -0.013474      0.014904
     0.020982     -0.031491      0.011211
    -0.001579     -0.002048      0.014843
     0.043613     -0.060275      0.007565
     0.018473     -0.029610      0.010451
    -0.000007     -0.004173      0.013627
     0.035880     -0.049734      0.008690
    -0.010469      0.007080      0.015161
    -0.012191      0.010419      0.015986
     0.030417     -0.041264      0.008570
     0.024036     -0.034790      0.008405
     0.018111     -0.027287      0.009753
     0.012207     -0.019376      0.011141
     0.046197     -0.059751      0.006592
     0.036435     -0.049388      0.007355
    -0.000706     -0.005073      0.013181
     0.031916     -0.045780      0.007764
    -0.011413      0.008256      0.013543
    -0.011197      0.009558      0.014485
     0.032902     -0.044711      0.006542
     0.040741     -0.052908      0.006413
    -0.004060      0.002104      0.012139
     0.052145     -0.063220      0.005600
     0.029566     -0.039326      0.007303
     0.016126     -0.022593      0.008790
    -0.001233     -0.003972      0.010760
    -0.004410      0.003997      0.012112
     0.021843     -0.029259      0.007419
     0.013364     -0.018956      0.008267
     0.042220     -0.054222      0.004598
     0.037613     -0.047828      0.005504
    -0.002848     -0.000433      0.011252
    -0.013826      0.012550      0.012959
     0.028261     -0.038068      0.006133
     0.047898     -0.056661      0.003578
     0.020017     -0.023583      0.007315
    -0.009846      0.007765      0.011360
     0.034466     -0.043622      0.004476
     0.006683     -0.009607      0.008174
     0.059027     -0.066291      0.002997
     0.027623     -0.036966      0.004716
     0.024636     -0.030609      0.005589
     0.011680     -0.016491      0.007235
     0.041795     -0.049470      0.003552
    -0.005117      0.004936      0.010071
     0.053394     -0.062691      0.003705
     0.034372     -0.042894      0.002923
    -0.000726     -0.000611      0.008524
    -0.006921      0.005179      0.008706
    -0.014808      0.014350      0.011368
     0.023008     -0.029193      0.004548
     0.000551     -0.003862      0.007243
     0.045611     -0.051400      0.002045
     0.060371     -0.065490      0.002001
     0.043026     -0.047214      0.001230
     0.017864     -0.020251      0.005284
     0.052749     -0.058397      0.002131
    -0.013855      0.012445      0.008675
    -0.021834      0.021170      0.011265
     0.016587     -0.019991      0.004482
     0.005149     -0.007021      0.005788
     0.029844     -0.035769      0.001707
     0.030549     -0.034856      0.002370
    -0.000857     -0.000609      0.007008
     0.022008     -0.024421      0.002902
     0.038872     -0.042380      0.000809
     0.053483     -0.059834      0.001238
     0.051434     -0.054832      0.000704
    -0.019308      0.018710      0.009433
     0.064403     -0.065494     -0.000371
     0.050310     -0.052844     -0.000763
     0.003671     -0.006389      0.004795
    -0.007326      0.007021      0.007333
     0.057179     -0.058214     -0.000658
    -0.023092      0.023391      0.010271
     0.036784     -0.040669      0.000079
     0.021388     -0.025043      0.001913
     0.009067     -0.010212      0.003104
    -0.004731      0.002904      0.005408
    -0.014527      0.012641      0.006677
     0.032478     -0.032149      0.000694
     0.044027     -0.047622     -0.000597
    -0.017769      0.017099      0.007397
     0.063435     -0.062234     -0.000324
    -0.023245      0.023869      0.008486
    -0.010164      0.010287      0.005549
     0.041449     -0.042390     -0.002052
     0.034343     -0.035647     -0.000394
     0.008659     -0.011197      0.002338
     0.000474     -0.000018      0.004003
     0.055812     -0.053192     -0.001142
     0.070533     -0.067368     -0.001499
    -0.028048      0.027284      0.008230
     0.018242     -0.017675     -0.000078
     0.046626     -0.046983     -0.002106
     0.054107     -0.053933     -0.002061
     0.063539     -0.060770     -0.003167
     0.031036     -0.032966     -0.001236
     0.023729     -0.026558     -0.000099
     0.020646     -0.021364      0.000431
    -0.000484     -0.001294      0.003055
    -0.003903      0.003181      0.003209
    -0.012497      0.011866      0.004286
    -0.027591      0.028706      0.007533
     0.042248     -0.043135     -0.003986
    -0.016762      0.016437      0.005296
     0.072047     -0.065825     -0.003571
     0.045571     -0.044243     -0.002682
     0.011347     -0.013531      0.000212
     0.056570     -0.053977     -0.003645
    -0.012257      0.011555      0.002876
    -0.019897      0.021126      0.006116
     0.008068     -0.007621      0.000349
    -0.031323      0.031862      0.007069
     0.037592     -0.036526     -0.003289
     0.032086     -0.030246     -0.003289
     0.024225     -0.025371     -0.003004
    -0.000225      0.000692      0.000446
     0.050328     -0.050170     -0.003826
     0.063036     -0.060267     -0.004471
    -0.032560      0.031465      0.005256
     0.020728     -0.020123     -0.001918
    -0.008406      0.009204      0.001907
     0.061482     -0.056737     -0.005032
    -0.024701      0.025833      0.005956
     0.035355     -0.035519     -0.003925
     0.011968     -0.012284     -0.001523
    -0.003426      0.005296      0.001229
    -0.015815      0.016847      0.003233
    -0.023612      0.024740      0.004370
     0.077799     -0.067609     -0.005131
     0.017448     -0.014771     -0.002560
    -0.000333     -0.000358     -0.000477
    -0.012938      0.013996      0.002114
     0.057398     -0.052708     -0.005450
    -0.021001      0.021802      0.003066
     0.073933     -0.063190     -0.005125
    -0.001058      0.002991     -0.000372
    -0.027155      0.028791      0.003731
    -0.033872      0.032985      0.004059
     0.027168     -0.025786     -0.004446
     0.042770     -0.041085     -0.005928
     0.001120     -0.000163     -0.001810
     0.054080     -0.050567     -0.006953
     0.068405     -0.059516     -0.006548
     0.036822     -0.034199     -0.005695
     0.020760     -0.019894     -0.005256
     0.046547     -0.045457     -0.006180
    -0.006196      0.007012     -0.000502
    -0.012042      0.014669      0.000354
    -0.014702      0.017733      0.001182
     0.072087     -0.062913     -0.006383
    -0.022879      0.023798      0.002997
     0.080738     -0.066134     -0.006833
     0.012885     -0.012106     -0.003266
     0.009367     -0.006666     -0.002796
     0.048457     -0.045518     -0.007958
     0.062741     -0.054915     -0.007842
    -0.020107      0.022667      0.001775
     0.045504     -0.042493     -0.008404
     0.040148     -0.037886     -0.007224
     0.028470     -0.025881     -0.005629
     0.019573     -0.019057     -0.003467
     0.008039     -0.006475     -0.003767
     0.056558     -0.048648     -0.007973
    -0.014314      0.015971     -0.000673
    -0.025814      0.027575      0.001079
    -0.031651      0.032919      0.003218
     0.035183     -0.031862     -0.007547
     0.013951     -0.011082     -0.004939
    -0.009776      0.012004     -0.002045
    -0.019011      0.020059      0.000409
     0.074949     -0.061095     -0.007593
    -0.030210      0.031268      0.002566
     0.019766     -0.016669     -0.006299
    -0.000350      0.003548     -0.003558
     0.057262     -0.049424     -0.009665
     0.035395     -0.032875     -0.008752
     0.039617     -0.037485     -0.008577
    -0.017727      0.020307     -0.001888
     0.061966     -0.052695     -0.009310
     0.068602     -0.055333     -0.009475
     0.025177     -0.022036     -0.007878
     0.001861      0.000689     -0.004712
     0.079616     -0.061758     -0.008757
    -0.025731      0.028538      0.000926
     0.083596     -0.064885     -0.008229
     0.015467     -0.013827     -0.006945
     0.013629     -0.009801     -0.006283
     0.044696     -0.038319     -0.009237
     0.031252     -0.027259     -0.009435
     0.073511     -0.059030     -0.010177
    -0.021794      0.024997     -0.000940
    -0.025233      0.028149     -0.000772
    -0.032799      0.033821      0.000798
     0.044173     -0.038575     -0.010515
    -0.004775      0.008619     -0.004682
     0.054026     -0.046249     -0.010496
    -0.011100      0.012994     -0.003743
    -0.016695      0.018377     -0.003378
    -0.030307      0.032890     -0.000925
     0.024455     -0.020315     -0.009173
     0.003157      0.001509     -0.006498
     0.059199     -0.049218     -0.011839
    -0.017734      0.021472     -0.003579
     0.066780     -0.053408     -0.011435
    -0.025288      0.028529     -0.002549
     0.080697     -0.060327     -0.010354
     0.035443     -0.031761     -0.011163
     0.026021     -0.023816     -0.009873
     0.040339     -0.035358     -0.011030
     0.015583     -0.011335     -0.008412
     0.003550     -0.000134     -0.007395
     0.049267     -0.042637     -0.011502
    -0.004284      0.006816     -0.006056
     0.086672     -0.063604     -0.010582
     0.006722     -0.003412     -0.008474
     0.078843     -0.060102     -0.011670
     0.093898     -0.067062     -0.011696
     0.044285     -0.036305     -0.011842
    -0.006219      0.009916     -0.006339
     0.072648     -0.053503     -0.012442
    -0.026129      0.028171     -0.004048
    -0.029333      0.033112     -0.002080
     0.082816     -0.059185     -0.011735
     0.016023     -0.010735     -0.009903
     0.004810     -0.000277     -0.009018
    -0.013212      0.016337     -0.006389
     0.063756     -0.051369     -0.013142
     0.075254     -0.055247     -0.011507
    -0.031292      0.034675     -0.003235
     0.086745     -0.062708     -0.012434
     0.044820     -0.039319     -0.013924
     0.034335     -0.028261     -0.012660
     0.017124     -0.013397     -0.010766
    -0.016864      0.020489     -0.006851
    -0.019245      0.024262     -0.005752
     0.049692     -0.040856     -0.015501
    -0.010179      0.013466     -0.007603
     0.066711     -0.053057     -0.014790
     0.077391     -0.055605     -0.013887
     0.022204     -0.017018     -0.012043
     0.008608     -0.003460     -0.010730
     0.005307     -0.002273     -0.011544
    -0.006682      0.009732     -0.008925
     0.051542     -0.043770     -0.013564
     0.057719     -0.046151     -0.015397
     0.081778     -0.057944     -0.013985
     0.087600     -0.060516     -0.013480
    -0.034388      0.036616     -0.001728
     0.038083     -0.031796     -0.014096
     0.027420     -0.023459     -0.013120
    -0.002925      0.005537     -0.010103
    -0.029613      0.032469     -0.004328
     0.045803     -0.037145     -0.015732
     0.015309     -0.011602     -0.013298
     0.012527     -0.008111     -0.011819
    -0.014437      0.016807     -0.008559
     0.093801     -0.064624     -0.014025
    -0.030629      0.035793     -0.004675
     0.042668     -0.035560     -0.016431
     0.034027     -0.027463     -0.015152
    -0.006419      0.010948     -0.010264
     0.063075     -0.046837     -0.017204
    -0.024076      0.027607     -0.007162
     0.028067     -0.023766     -0.016064
    -0.000572      0.003451     -0.012002
     0.069575     -0.051489     -0.015349
    -0.022832      0.029617     -0.006898
    -0.029186      0.033729     -0.005808
     0.101563     -0.067014     -0.014844
     0.022336     -0.016679     -0.015333
    -0.019573      0.021911     -0.009355
    -0.026744      0.027999     -0.008627
     0.085938     -0.058757     -0.015260
     0.015756     -0.009688     -0.013375
    -0.010496      0.014923     -0.011147
     0.075795     -0.053682     -0.016530
    -0.025534      0.029989     -0.007909
    -0.032109      0.034603     -0.007437
    -0.034764      0.038288     -0.005797
     0.050660     -0.039565     -0.017825
     0.037751     -0.029937     -0.016685
     0.001866      0.000450     -0.015354
     0.055370     -0.043309     -0.017521
    -0.007439      0.010709     -0.011978
     0.069937     -0.050187     -0.016886
     0.095810     -0.062130     -0.015688
     0.018462     -0.014760     -0.016323
     0.014706     -0.010114     -0.014672
     0.000256      0.004031     -0.014036
    -0.004251      0.006704     -0.014329
    -0.017191      0.018401     -0.011830
     0.072734     -0.053126     -0.018098
    -0.023396      0.025935     -0.009777
     0.084385     -0.057507     -0.016417
     0.080010     -0.052761     -0.017491
    -0.030558      0.036225     -0.007379
    -0.039171      0.039977     -0.006951
     0.024954     -0.021424     -0.018549
     0.019889     -0.013305     -0.016769
     0.055408     -0.041419     -0.018296
     0.066373     -0.046407     -0.019365
     0.070803     -0.048648     -0.018879
     0.085470     -0.055680     -0.018126
     0.090646     -0.060691     -0.017387
    -0.031248      0.034915     -0.008207
     0.100313     -0.064425     -0.016548
     0.033588     -0.027237     -0.018057
     0.030698     -0.023720     -0.018768
     0.046922     -0.037295     -0.019186
     0.002847      0.001559     -0.015546
    -0.009724      0.014318     -0.012929
    -0.029749      0.035718     -0.008768
     0.105471     -0.066389     -0.017002
     0.022263     -0.016883     -0.018005
     0.047845     -0.038275     -0.020217
    -0.013572      0.015069     -0.014334
    -0.019754      0.022474     -0.011116
    -0.029923      0.032749     -0.010282
    -0.037675      0.040245     -0.008208
     0.007600     -0.003385     -0.016734
     0.060404     -0.043094     -0.019764
     0.079507     -0.050927     -0.018818
     0.097905     -0.061014     -0.017359
    -0.035899      0.038413     -0.009006
     0.042305     -0.033625     -0.021447
     0.027885     -0.022881     -0.019686
     0.017601     -0.014245     -0.019237
     0.053284     -0.038259     -0.020553
    -0.021552      0.022959     -0.013192
    -0.025312      0.026715     -0.012279
     0.090386     -0.057214     -0.018957
     0.107056     -0.064732     -0.017541
     0.013522     -0.009421     -0.017965
     0.007454     -0.003263     -0.018133
    -0.003377      0.005524     -0.017213
     0.057636     -0.041518     -0.020988
     0.072454     -0.048307     -0.020310
    -0.030873      0.035372     -0.010388
     0.112906     -0.068021     -0.018131
     0.061279     -0.041370     -0.021924
    -0.024939      0.026146     -0.014278
     0.099442     -0.061000     -0.018239
    -0.037303      0.040313     -0.010001
     0.036425     -0.028895     -0.021742
     0.020660     -0.015863     -0.020664
     0.013359     -0.008120     -0.020054
    -0.011595      0.015222     -0.015966
     0.070461     -0.044819     -0.021504
    -0.023913      0.027177     -0.015023
     0.085276     -0.052169     -0.019853
    -0.031651      0.036040     -0.011478
     0.108391     -0.062716     -0.018486
     0.046485     -0.035844     -0.022943
     0.031573     -0.025621     -0.022493
    -0.008745      0.011229     -0.017216
     0.075619     -0.046290     -0.021408
    -0.027797      0.030698     -0.013122
    -0.034234      0.038218     -0.013275
    -0.042301      0.042507     -0.011191
     0.016024     -0.011686     -0.021221
    -0.000480      0.002900     -0.018937
    -0.010986      0.012207     -0.018474
    -0.017881      0.019757     -0.016289
     0.090767     -0.054947     -0.021085
     0.094741     -0.056363     -0.019973
     0.016568     -0.013831     -0.022153
     0.053993     -0.039166     -0.022670
    -0.029016      0.033048     -0.014178
     0.108385     -0.060142     -0.019601
     0.113163     -0.064466     -0.019305
    -0.038003      0.041704     -0.011622
     0.024831     -0.021139     -0.023435
     0.006555     -0.004269     -0.021342
     0.003402      0.000020     -0.020828
     0.071223     -0.043062     -0.022825
     0.096390     -0.055057     -0.020830
     0.010604     -0.008826     -0.022519
    -0.005697      0.008159     -0.019681
    -0.021745      0.024600     -0.017211
     0.079734     -0.049992     -0.021632
    -0.031652      0.035602     -0.014922
    -0.038753      0.042477     -0.012729
     0.042827     -0.032970     -0.024855
     0.050893     -0.036913     -0.024170
    -0.001153      0.003148     -0.021121
     0.077672     -0.045558     -0.023168
    -0.039152      0.041067     -0.014001
     0.034545     -0.028256     -0.024660
    -0.009665      0.014414     -0.019308
     0.069880     -0.042016     -0.023771
    -0.015984      0.019166     -0.018980
     0.085621     -0.050772     -0.022113
    -0.031527      0.037320     -0.015154
     0.106930     -0.056021     -0.020481
     0.029565     -0.022974     -0.025066
     0.020336     -0.014298     -0.024161
     0.013409     -0.007594     -0.023339
     0.008205     -0.004827     -0.023292
     0.054143     -0.034881     -0.025223
     0.004516      0.000573     -0.022069
     0.057133     -0.037969     -0.024109
     0.098516     -0.051841     -0.021605
     0.035841     -0.027221     -0.025735
     0.023376     -0.019379     -0.024417
     0.048881     -0.033517     -0.025093
    -0.004840      0.006932     -0.021093
    -0.008286      0.011442     -0.020966
     0.074488     -0.039067     -0.024540
    -0.026363      0.030957     -0.017224
     0.092046     -0.049569     -0.023066
     0.110163     -0.056290     -0.021184
    -0.042284      0.044317     -0.013718
     0.063950     -0.036504     -0.025477
    -0.018501      0.021711     -0.019882