# vtk DataFile Version 2.0
3Dafter_M1
ASCII
DATASET UNSTRUCTURED_GRID
POINTS 9125 float
     2.667068      1.758000     10.440321
     2.717233      1.752949     10.475043
     2.727147      1.740792     10.491214
     2.758616      1.748761     10.492322
     2.648144      1.747609     10.467207
     2.659222      1.744480     10.514739
     2.573936      1.760113     10.542770
     2.640684      1.734722     10.550676
     2.709873      1.735982     10.531168
     2.599776      1.749102     10.515943
     2.629628      1.746252     10.542141
     2.741469      1.749150     10.522943
     2.765957      1.742844     10.556550
     2.723654      1.733094     10.551160
     2.666373      1.720594     10.566417
     2.689474      1.730443     10.573139
     2.570393      1.749361     10.566105
     2.780254      1.736186     10.583704
     2.640629      1.730969     10.592982
     2.713907      1.716683     10.597034
     2.600969      1.746383     10.593893
     2.648783      1.722732     10.609884
     2.767408      1.729337     10.602314
     2.555512      1.749046     10.627940
     2.739156      1.725774     10.594071
     2.609756      1.735713     10.614187
     2.692385      1.716590     10.630112
     2.759466      1.722983     10.629366
     2.799135      1.738252     10.628225
     2.603737      1.734540     10.630280
     2.818156      1.976963      9.176189
     2.653631      1.992882      9.200749
     2.749842      1.974292      9.178234
     2.817684      1.968564      9.205571
     2.719138      1.978692      9.212781
     2.677637      1.982974      9.212645
     2.715655      1.967111      9.230581
     2.768970      1.972830      9.245377
     2.641569      1.986884      9.249551
     2.848633      1.963343      9.230140
     2.865727      1.974974      9.227707
     2.687157      1.982972      9.248096
     2.663167      1.972249      9.251198
     2.784708      1.959532      9.259497
     2.699282      1.969728      9.280509
     2.599084      1.991133      9.270251
     2.759325      1.963028      9.283664
     2.824549      1.966789      9.275703
     2.611966      1.992835      9.289982
     2.842358      1.975434      9.260247
     2.674008      1.971868      9.276871
     2.622319      1.978054      9.298382
     2.695329      1.958884      9.294268
     2.845072      1.959781      9.288082
     2.733111      1.958485      9.311046
     2.754336      1.952207      9.295030
     2.595688      1.982736      9.325646
     2.897814      1.970719      9.312296
     2.634439      1.965271      9.313599
     2.803725      1.951031      9.294905
     2.722757      1.956273      9.338963
     2.849325      1.958910      9.329552
     2.586593      1.978080      9.359363
     2.727156      1.943687      9.351016
     2.837854      1.954382      9.349492
     2.636627      1.969588      9.357480
     2.892099      1.959918      9.339978
     2.911244      1.976308      9.338056
     2.670277      1.962535      9.377517
     2.695708      1.944742      9.385681
     2.733994      1.944671      9.373950
     2.770810      1.951016      9.366320
     2.582276      1.984812      9.388711
     2.630131      1.962167      9.383735
     2.832358      1.943824      9.349667
     2.647464      1.951508      9.375668
     2.893671      1.953401      9.378611
     2.903482      1.969619      9.369863
     2.644276      1.948735      9.405691
     2.609352      1.968080      9.400427
     2.860667      1.952421      9.400843
     2.560481      2.000144      9.413896
     2.670430      1.952285      9.405423
     2.747058      1.941810      9.408586
     2.829905      1.932494      9.403229
     2.870861      1.963348      9.414082
     2.712547      1.940660      9.422362
     2.759084      1.936228      9.427159
     2.592597      1.957752      9.431262
     2.624773      1.955427      9.426792
     2.846583      1.941767      9.408073
     2.914604      1.965163      9.412458
     2.669262      1.939156      9.426912
     2.574642      1.972728      9.460107
     2.734526      1.946584      9.446100
     2.886447      1.948824      9.430095
     2.636545      1.941856      9.452573
     2.797587      1.937203      9.455900
     2.528238      2.004237      9.471163
     2.666579      1.927478      9.455055
     2.696789      1.936808      9.459934
     2.764714      1.928561      9.453671
     2.605374      1.956703      9.469032
     2.869889      1.953276      9.460106
     2.549553      1.989728      9.452829
     2.631423      1.930229      9.483465
     2.838776      1.939008      9.473454
     2.866661      1.934632      9.481061
     2.920545      1.963887      9.457106
     2.698561      1.924654      9.480425
     2.820374      1.922641      9.483984
     2.587364      1.958015      9.503309
     2.523957      2.001328      9.497418
     2.600451      1.946449      9.528801
     2.740545      1.931765      9.495116
     2.556683      1.979476      9.497220
     2.903999      1.940850      9.505115
     2.954721      1.966733      9.479013
     2.740224      1.920836      9.507631
     2.802576      1.925586      9.515086
     2.656516      1.916939      9.527846
     2.662793      1.928474      9.522767
     2.835155      1.929663      9.505392
     2.713896      1.923542      9.536865
     2.619184      1.932593      9.544441
     2.545828      1.972198      9.509841
     2.563008      1.966332      9.535074
     2.937830      1.955129      9.512796
     2.506418      1.994552      9.554845
     2.563686      1.951863      9.567836
     2.803749      1.914717      9.533655
     2.873287      1.936897      9.524065
     2.538396      1.973203      9.566354
     2.963463      1.969912      9.514900
     2.623195      1.919984      9.559338
     2.708762      1.911739      9.550899
     2.782122      1.916834      9.567801
     2.848772      1.916731      9.546720
     2.900855      1.926927      9.547374
     2.665268      1.931577      9.578323
     2.588821      1.934656      9.566049
     2.925208      1.942233      9.552731
     2.519334      1.995727      9.565086
     2.961779      1.963131      9.559283
     2.886521      1.931934      9.575713
     2.605088      1.922162      9.612100
     2.643897      1.919495      9.587187
     2.777103      1.906107      9.575684
     2.831938      1.924494      9.581237
     2.556092      1.971906      9.594297
     2.485169      2.005840      9.590009
     2.979382      1.956709      9.569555
     2.738075      1.910480      9.623633
     2.583597      1.936375      9.609694
     2.551152      1.956360      9.602412
     2.512999      1.975734      9.626271
     2.655411      1.906854      9.607157
     2.694169      1.903821      9.592643
     2.721465      1.911735      9.600340
     2.824751      1.907508      9.588023
     2.845249      1.911106      9.601346
     2.891320      1.920371      9.604474
     2.988269      1.973192      9.605355
     2.596140      1.911863      9.651844
     2.917219      1.932049      9.599148
     2.480746      1.997386      9.642068
     2.593418      1.933344      9.631707
     2.761072      1.896275      9.616347
     2.544076      1.956273      9.643741
     2.885514      1.910286      9.633943
     2.942515      1.951053      9.606011
     2.786086      1.905561      9.639746
     3.017723      1.990229      9.637247
     2.627491      1.908876      9.653930
     2.660405      1.906254      9.669606
     2.690685      1.889758      9.661733
     2.824778      1.901251      9.660456
     2.563385      1.935477      9.643247
     2.511397      1.965769      9.652781
     3.004309      1.958201      9.658576
     2.719757      1.900820      9.656972
     2.869223      1.910022      9.654976
     2.524814      1.962286      9.676026
     2.966722      1.955340      9.626545
     2.632335      1.897271      9.664209
     2.760761      1.892900      9.663248
     2.847271      1.911169      9.663155
     2.913161      1.927493      9.652992
     2.957820      1.945089      9.657588
     2.458794      2.003442      9.685198
     2.743675      1.901540      9.690195
     2.818452      1.890143      9.672143
     2.894918      1.917300      9.667734
     2.543070      1.950549      9.690208
     2.939373      1.931342      9.673386
     2.483263      1.996831      9.690727
     2.831949      1.902408      9.691614
     2.978531      1.951979      9.691321
     3.012980      1.960872      9.695984
     2.681772      1.891748      9.701133
     2.598974      1.906353      9.705599
     2.814293      1.890095      9.708569
     2.550088      1.930518      9.720476
     2.500980      1.972009      9.716969
     2.632399      1.896394      9.714710
     2.711653      1.878360      9.729900
     2.578570      1.913413      9.702674
     2.851159      1.894362      9.701027
     2.892041      1.915423      9.715858
     2.910765      1.927063      9.711050
     2.481481      1.980048      9.710969
     2.950020      1.934678      9.683176
     2.452428      2.000101      9.735979
     2.756259      1.885972      9.704729
     2.779754      1.895028      9.718334
     2.572152      1.910095      9.747425
     2.521208      1.949147      9.747067
     2.939529      1.935511      9.714372
     2.585629      1.899539      9.761464
     2.611448      1.892338      9.739924
     2.676764      1.889374      9.731469
     2.721530      1.888843      9.690922
     2.779580      1.882949      9.734915
     2.551588      1.936091      9.760189
     2.896814      1.905493      9.737670
     2.965120      1.935300      9.744826
     3.007945      1.968444      9.725593
     2.640552      1.885618      9.762198
     2.753573      1.882446      9.752605
     2.870678      1.895174      9.755487
     2.922698      1.914389      9.726178
     2.479353      1.981857      9.753752
     2.993082      1.952456      9.727161
     2.722231      1.878275      9.769440
     2.824533      1.889736      9.766213
     2.543089      1.925335      9.794611
[...]
POINT_DATA 9125
VECTORS U float
     0.023653     -0.006729     -0.020308
     0.015716     -0.000880     -0.020483
     0.013193      0.000263     -0.020654
     0.008897      0.003430     -0.020555
     0.025971     -0.007372     -0.020520
     0.024137     -0.003983     -0.020535
     0.038531     -0.007778     -0.019928
     0.026358     -0.004172     -0.020637
     0.015521      0.000850     -0.020676
     0.033454     -0.008071     -0.020238
     0.028940     -0.004718     -0.020412
     0.011572      0.003867     -0.020504
     0.007097      0.007754     -0.020568
     0.013122      0.003056     -0.020706
     0.021222     -0.001949     -0.020860
     0.018314      0.001103     -0.020685
     0.038338     -0.007297     -0.020041
     0.003875      0.010518     -0.020563
     0.026059     -0.002183     -0.020558
     0.013202      0.003827     -0.020791
     0.033369     -0.004119     -0.020178
     0.024068     -0.001128     -0.020617
     0.005487      0.009883     -0.020595
     0.040449     -0.006085     -0.019979
     0.009875      0.006536     -0.020677
     0.031082     -0.003147     -0.020305
     0.016478      0.003676     -0.020630
     0.006096      0.010383     -0.020564
     0.000282      0.015187     -0.020391
     0.031863     -0.002944     -0.020264
     0.004342     -0.009763      0.013916
     0.023849     -0.035775      0.011281
     0.012259     -0.020523      0.013064
     0.003427     -0.008986      0.013020
     0.016145     -0.025149      0.011715
     0.020508     -0.031606      0.011091
     0.015154     -0.025044      0.010868
     0.009921     -0.016561      0.011423
     0.024379     -0.037006      0.009383
    -0.000934     -0.003244      0.012761
    -0.001985     -0.001106      0.013209
     0.019693     -0.029901      0.010174
     0.020738     -0.033028      0.009435
     0.006523     -0.013234      0.011005
     0.017378     -0.026761      0.009183
     0.028644     -0.042757      0.008051
     0.010278     -0.017090      0.009979
     0.002578     -0.006546      0.011324
     0.028180     -0.040417      0.007799
     0.001293     -0.004112      0.012199
     0.019971     -0.030730      0.008884
     0.025875     -0.038048      0.007490
     0.016692     -0.026593      0.008503
    -0.000690     -0.002727      0.011175
     0.013210     -0.020608      0.008660
     0.009777     -0.017325      0.009353
     0.028909     -0.041000      0.006319
    -0.006994      0.005029      0.011296
     0.023541     -0.035289      0.007032
     0.003496     -0.009169      0.010142
     0.014278     -0.021430      0.007629
    -0.001074     -0.001394      0.010101
     0.029679     -0.041017      0.005148
     0.012571     -0.020149      0.007112
    -0.000005     -0.002840      0.009273
     0.024416     -0.033844      0.005914
    -0.007124      0.004818      0.010317
    -0.008296      0.007090      0.010879
     0.020698     -0.028080      0.005832
     0.016357     -0.023675      0.005720
     0.012324     -0.018569      0.006637
     0.008307     -0.013185      0.007582
     0.031437     -0.040661      0.004486
     0.024794     -0.033609      0.005005
    -0.000480     -0.003452      0.008970
     0.021719     -0.031153      0.005283
    -0.007766      0.005618      0.009216
    -0.007620      0.006504      0.009857
     0.022390     -0.030425      0.004452
     0.027724     -0.036004      0.004364
    -0.002763      0.001432      0.008260
     0.035484     -0.043021      0.003811
     0.020120     -0.026761      0.004970
     0.010973     -0.015375      0.005981
    -0.000839     -0.002703      0.007322
    -0.003001      0.002720      0.008242
     0.014864     -0.019910      0.005049
     0.009094     -0.012900      0.005626
     0.028730     -0.036898      0.003129
     0.025596     -0.032547      0.003745
    -0.001938     -0.000295      0.007657
    -0.009408      0.008540      0.008819
     0.019232     -0.025905      0.004173
     0.032594     -0.038558      0.002434
     0.013621     -0.016048      0.004978
    -0.006700      0.005284      0.007730
     0.023454     -0.029685      0.003046
     0.004547     -0.006538      0.005562
     0.040168     -0.045111      0.002039
     0.018797     -0.025155      0.003209
     0.016764     -0.020829      0.003803
     0.007948     -0.011222      0.004923
     0.028442     -0.033664      0.002417
    -0.003482      0.003359      0.006853
     0.036334     -0.042661      0.002521
     0.023390     -0.029189      0.001989
    -0.000494     -0.000416      0.005801
    -0.004710      0.003524      0.005924
    -0.010077      0.009765      0.007736
     0.015657     -0.019866      0.003095
     0.000375     -0.002628      0.004929
     0.031038     -0.034977      0.001392
     0.041082     -0.044566      0.001362
     0.029279     -0.032129      0.000837
     0.012156     -0.013781      0.003596
     0.035896     -0.039739      0.001450
    -0.009428      0.008469      0.005903
    -0.014858      0.014406      0.007666
     0.011287     -0.013604      0.003050
     0.003504     -0.004778      0.003939
     0.020308     -0.024341      0.001161
     0.020788     -0.023719      0.001613
    -0.000583     -0.000414      0.004769
     0.014977     -0.016618      0.001975
     0.026452     -0.028839      0.000551
     0.036395     -0.040716      0.000842
     0.035001     -0.037313      0.000479
    -0.013139      0.012732      0.006419
     0.043826     -0.044568     -0.000253
     0.034236     -0.035960     -0.000519
     0.002498     -0.004348      0.003263
    -0.004986      0.004778      0.004990
     0.038910     -0.039615     -0.000448
    -0.015714      0.015917      0.006989
     0.025031     -0.027675      0.000054
     0.014554     -0.017041      0.001302
     0.006170     -0.006949      0.002113
    -0.003219      0.001976      0.003680
    -0.009886      0.008602      0.004543
     0.022101     -0.021877      0.000472
     0.029960     -0.032407     -0.000407
    -0.012092      0.011636      0.005034
     0.043167     -0.042350     -0.000220
    -0.015818      0.016242      0.005775
    -0.006916      0.007000      0.003776
     0.028206     -0.028846     -0.001397
     0.023370     -0.024257     -0.000268
     0.005893     -0.007619      0.001591
     0.000323     -0.000012      0.002724
     0.037980     -0.036197     -0.000777
     0.047997     -0.045844     -0.001020
    -0.019087      0.018566      0.005600
     0.012414     -0.012028     -0.000053
     0.031729     -0.031972     -0.001433
     0.036820     -0.036701     -0.001402
     0.043238     -0.041354     -0.002155
     0.021120     -0.022433     -0.000841
     0.016147     -0.018072     -0.000068
     0.014049     -0.014538      0.000293
    -0.000330     -0.000880      0.002079
    -0.002656      0.002164      0.002184
    -0.008504      0.008075      0.002917
    -0.018776      0.019534      0.005126
     0.028749     -0.029353     -0.002713
    -0.011407      0.011185      0.003604
     0.049028     -0.044793     -0.002430
     0.031011     -0.030107     -0.001825
     0.007721     -0.009208      0.000144
     0.038496     -0.036731     -0.002480
    -0.008341      0.007863      0.001957
    -0.013540      0.014376      0.004162
     0.005491     -0.005186      0.000237
    -0.021315      0.021682      0.004811
     0.025581     -0.024856     -0.002238
     0.021835     -0.020583     -0.002238
     0.016485     -0.017265     -0.002044
    -0.000153      0.000471      0.000304
     0.034248     -0.034140     -0.002604
     0.042895     -0.041011     -0.003042
    -0.022157      0.021412      0.003577
     0.014105     -0.013693     -0.001305
    -0.005720      0.006263      0.001298
     0.041838     -0.038609     -0.003424
    -0.016809      0.017579      0.004053
     0.024059     -0.024171     -0.002671
     0.008144     -0.008359     -0.001037
    -0.002331      0.003604      0.000836
    -0.010762      0.011464      0.002200
    -0.016068      0.016835      0.002974
     0.052942     -0.046008     -0.003492
     0.011873     -0.010052     -0.001742
    -0.000227     -0.000243     -0.000325
    -0.008804      0.009524      0.001438
     0.039059     -0.035868     -0.003708
    -0.014291      0.014836      0.002086
     0.050311     -0.043000     -0.003488
    -0.000720      0.002036     -0.000253
    -0.018479      0.019592      0.002539
    -0.023050      0.022446      0.002762
     0.018488     -0.017547     -0.003026
     0.029105     -0.027958     -0.004034
     0.000762     -0.000111     -0.001232
     0.036801     -0.034410     -0.004732
     0.046550     -0.040501     -0.004456
     0.025057     -0.023273     -0.003875
     0.014127     -0.013538     -0.003577
     0.031675     -0.030933     -0.004205
    -0.004216      0.004772     -0.000342
    -0.008195      0.009982      0.000241
    -0.010005      0.012067      0.000805
     0.049055     -0.042812     -0.004344
    -0.015569      0.016194      0.002040
     0.054942     -0.045004     -0.004650
     0.008768     -0.008238     -0.002222
     0.006374     -0.004536     -0.001903
     0.032975     -0.030975     -0.005416
     0.042695     -0.037369     -0.005336
    -0.013682      0.015425      0.001208
     0.030965     -0.028916     -0.005719
     0.027321     -0.025781     -0.004916
     0.019374     -0.017612     -0.003831
     0.013320     -0.012968     -0.002359
     0.005470     -0.004406     -0.002564
     0.038487     -0.033105     -0.005425
    -0.009740      0.010868     -0.000458
    -0.017567      0.018765      0.000734
    -0.021538      0.022401      0.002190
     0.023942     -0.021682     -0.005136
     0.009494     -0.007541     -0.003361
    -0.006652      0.008168     -0.001392
    -0.012937      0.013650      0.000279
     0.051002     -0.041575     -0.005167
    -0.020558      0.021278      0.001746
     0.013451     -0.011343     -0.004286
    -0.000238      0.002414     -0.002421
     0.038966     -0.033633     -0.006577
     0.024086     -0.022371     -0.005956
     0.026959     -0.025509     -0.005836
    -0.012063      0.013819     -0.001285
     0.042168     -0.035859     -0.006335
     0.046683     -0.037654     -0.006448
     0.017133     -0.014995     -0.005361
     0.001267      0.000469     -0.003207
     0.054179     -0.042026     -0.005959
    -0.017510      0.019420      0.000630
     0.056887     -0.044154     -0.005600
     0.010525     -0.009409     -0.004726
     0.009275     -0.006670     -0.004276
     0.030415     -0.026076     -0.006286
     0.021267     -0.018550     -0.006421
     0.050024     -0.040170     -0.006925
    -0.014831      0.017010     -0.000640
    -0.017171      0.019155     -0.000525
    -0.022320      0.023015      0.000543
     0.030060     -0.026250     -0.007155
    -0.003250      0.005865     -0.003186
     0.036764     -0.031472     -0.007142
    -0.007553      0.008842     -0.002547
    -0.011361      0.012505     -0.002299
    -0.020624      0.022382     -0.000630
     0.016642     -0.013824     -0.006242
     0.002148      0.001027     -0.004422
     0.040285     -0.033492     -0.008056
    -0.012068      0.014612     -0.002435
     0.045443     -0.036344     -0.007781
    -0.017208      0.019414     -0.001735
     0.054914     -0.041052     -0.007046
     0.024119     -0.021613     -0.007597
     0.017707     -0.016207     -0.006718
     0.027451     -0.024061     -0.007506
     0.010604     -0.007713     -0.005724
     0.002416     -0.000091     -0.005032
     0.033526     -0.029015     -0.007827
    -0.002915      0.004639     -0.004121
     0.058980     -0.043282     -0.007201
     0.004574     -0.002322     -0.005767
     0.053652     -0.040899     -0.007942
     0.063897     -0.045636     -0.007959
     0.030136     -0.024706     -0.008059
    -0.004232      0.006748     -0.004314
     0.049437     -0.036409     -0.008467
    -0.017781      0.019171     -0.002755
    -0.019961      0.022533     -0.001416
     0.056356     -0.040275     -0.007986
     0.010903     -0.007305     -0.006739
     0.003273     -0.000188     -0.006137
    -0.008990      0.011118     -0.004348
     0.043386     -0.034956     -0.008943
     0.051210     -0.037596     -0.007830
    -0.021294      0.023596     -0.002202
     0.059030     -0.042672     -0.008462
     0.030500     -0.026756     -0.009475
     0.023365     -0.019232     -0.008615
     0.011653     -0.009116     -0.007326
    -0.011476      0.013942     -0.004662
    -0.013096      0.016510     -0.003914
     0.033815     -0.027802     -0.010548
    -0.006927      0.009164     -0.005174
     0.045396     -0.036105     -0.010065
     0.052664     -0.037839     -0.009450
     0.015110     -0.011581     -0.008195
     0.005858     -0.002355     -0.007302
     0.003612     -0.001547     -0.007856
    -0.004547      0.006623     -0.006073
     0.035074     -0.029785     -0.009230
     0.039277     -0.031406     -0.010478
     0.055650     -0.039431     -0.009517
     0.059611     -0.041181     -0.009173
    -0.023401      0.024917     -0.001176
     0.025915     -0.021637     -0.009593
     0.018659     -0.015963     -0.008928
    -0.001990      0.003768     -0.006875
    -0.020152      0.022095     -0.002945
     0.031169     -0.025277     -0.010706
     0.010418     -0.007895     -0.009049
     0.008525     -0.005519     -0.008042
    -0.009824      0.011437     -0.005824
     0.063831     -0.043977     -0.009544
    -0.020843      0.024357     -0.003181
     0.029035     -0.024199     -0.011181
     0.023155     -0.018689     -0.010311
    -0.004368      0.007450     -0.006984
     0.042922     -0.031872     -0.011707
    -0.016384      0.018787     -0.004874
     0.019099     -0.016172     -0.010932
    -0.000389      0.002349     -0.008168
     0.047346     -0.035038     -0.010445
    -0.015537      0.020155     -0.004694
    -0.019861      0.022952     -0.003952
     0.069113     -0.045602     -0.010101
     0.015199     -0.011350     -0.010434
    -0.013319      0.014910     -0.006366
    -0.018199      0.019053     -0.005870
     0.058480     -0.039984     -0.010384
     0.010722     -0.006593     -0.009101
    -0.007143      0.010155     -0.007585
     0.051578     -0.036530     -0.011249
    -0.017376      0.020407     -0.005382
    -0.021850      0.023547     -0.005061
    -0.023656      0.026055     -0.003945
     0.034474     -0.026924     -0.012130
     0.025689     -0.020372     -0.011354
     0.001270      0.000306     -0.010449
     0.037679     -0.029471     -0.011923
    -0.005062      0.007287     -0.008151
     0.047592     -0.034152     -0.011491
     0.065199     -0.042279     -0.010676
     0.012563     -0.010044     -0.011108
     0.010007     -0.006883     -0.009984
     0.000174      0.002743     -0.009552
    -0.002893      0.004562     -0.009751
    -0.011699      0.012522     -0.008051
     0.049495     -0.036152     -0.012316
    -0.015921      0.017649     -0.006653
     0.057424     -0.039133     -0.011172
     0.054447     -0.035903     -0.011903
    -0.020795      0.024651     -0.005021
    -0.026655      0.027204     -0.004730
     0.016981     -0.014579     -0.012623
     0.013534     -0.009054     -0.011411
     0.037705     -0.028186     -0.012450
     0.045167     -0.031580     -0.013178
     0.048181     -0.033105     -0.012847
     0.058162     -0.037890     -0.012334
     0.061684     -0.041300     -0.011832
    -0.021264      0.023759     -0.005585
     0.068263     -0.043841     -0.011261
     0.022857     -0.018535     -0.012288
     0.020890     -0.016141     -0.012772
     0.031930     -0.025379     -0.013056
     0.001938      0.001061     -0.010579
    -0.006617      0.009743     -0.008798
    -0.020244      0.024306     -0.005967
     0.071773     -0.045177     -0.011570
     0.015150     -0.011489     -0.012252
     0.032558     -0.026046     -0.013757
    -0.009235      0.010254     -0.009754
    -0.013443      0.015293     -0.007564
    -0.020363      0.022285     -0.006997
    -0.025637      0.027387     -0.005585
     0.005172     -0.002303     -0.011387
     0.041104     -0.029325     -0.013449
     0.054104     -0.034656     -0.012806
     0.066624     -0.041520     -0.011813
    -0.024429      0.026140     -0.006129
     0.028788     -0.022882     -0.014595
     0.018975     -0.015570     -0.013397
     0.011978     -0.009694     -0.013091
     0.036260     -0.026035     -0.013986
    -0.014666      0.015623     -0.008977
    -0.017225      0.018179     -0.008356
     0.061507     -0.038934     -0.012900
     0.072851     -0.044050     -0.011937
     0.009202     -0.006411     -0.012225
     0.005073     -0.002220     -0.012340
    -0.002298      0.003759     -0.011713
     0.039221     -0.028253     -0.014283
     0.049304     -0.032873     -0.013821
    -0.021009      0.024070     -0.007069
     0.076832     -0.046288     -0.012338
     0.041700     -0.028152     -0.014919
    -0.016971      0.017792     -0.009716
     0.067670     -0.041510     -0.012412
    -0.025384      0.027433     -0.006806
     0.024787     -0.019663     -0.014795
     0.014059     -0.010795     -0.014061
     0.009091     -0.005526     -0.013647
    -0.007890      0.010359     -0.010865
     0.047949     -0.030499     -0.014634
    -0.016273      0.018494     -0.010223
     0.058030     -0.035501     -0.013510
    -0.021538      0.024525     -0.007811
     0.073760     -0.042678     -0.012579
     0.031633     -0.024392     -0.015613
     0.021485     -0.017435     -0.015306
    -0.005951      0.007641     -0.011716
     0.051459     -0.031500     -0.014568
    -0.018916      0.020890     -0.008929
    -0.023296      0.026007     -0.009034
    -0.028786      0.028926     -0.007616
     0.010904     -0.007952     -0.014441
    -0.000327      0.001974     -0.012886
    -0.007476      0.008307     -0.012571
    -0.012168      0.013445     -0.011085
     0.061766     -0.037391     -0.014348
     0.064471     -0.038355     -0.013592
     0.011275     -0.009412     -0.015075
     0.036742     -0.026652     -0.015427
    -0.019745      0.022489     -0.009648
     0.073756     -0.040926     -0.013339
     0.077007     -0.043869     -0.013137
    -0.025861      0.028379     -0.007909
     0.016897     -0.014385     -0.015948
     0.004461     -0.002905     -0.014523
     0.002315      0.000013     -0.014173
     0.048467     -0.029304     -0.015532
     0.065593     -0.037466     -0.014175
     0.007216     -0.006006     -0.015324
    -0.003877      0.005552     -0.013393
    -0.014797      0.016740     -0.011712
     0.054258     -0.034019     -0.014720
    -0.021539      0.024227     -0.010154
    -0.026371      0.028905     -0.008662
     0.029144     -0.022436     -0.016914
     0.034633     -0.025119     -0.016448
    -0.000784      0.002142     -0.014372
     0.052855     -0.031002     -0.015766
    -0.026643      0.027946     -0.009528
     0.023508     -0.019228     -0.016781
    -0.006577      0.009808     -0.013139
     0.047553     -0.028592     -0.016176
    -0.010877      0.013042     -0.012916
     0.058265     -0.034550     -0.015048
    -0.021454      0.025396     -0.010312
     0.072765     -0.038122     -0.013937
     0.020119     -0.015634     -0.017058
     0.013839     -0.009730     -0.016442
     0.009125     -0.005168     -0.015882
     0.005584     -0.003285     -0.015850
     0.036844     -0.023737     -0.017164
     0.003073      0.000390     -0.015018
     0.038879     -0.025838     -0.016406
     0.067040     -0.035278     -0.014702
     0.024389     -0.018524     -0.017512
     0.015907     -0.013187     -0.016615
     0.033263     -0.022808     -0.017076
    -0.003294      0.004717     -0.014354
    -0.005638      0.007786     -0.014267
     0.050689     -0.026585     -0.016699
    -0.017940      0.021066     -0.011721
     0.062637     -0.033732     -0.015696
     0.074966     -0.038305     -0.014415
    -0.028774      0.030158     -0.009335
     0.043518     -0.024840     -0.017337
    -0.012590      0.014774     -0.013530