# vtk DataFile Version 2.0
3Dafter2_M2
ASCII
DATASET UNSTRUCTURED_GRID
POINTS 9125 float
     2.750336      1.876305     10.406365
     2.789489      1.873114     10.440639
     2.796403      1.860741     10.456585
     2.821931      1.869938     10.457675
     2.733946      1.865770     10.432952
     2.741972      1.864018     10.480167
     2.672724      1.877902     10.507983
     2.725877      1.853827     10.515759
     2.781698      1.856273     10.496266
     2.693433      1.866434     10.481270
     2.717709      1.865734     10.507427
     2.807741      1.870964     10.488167
     2.826243      1.865600     10.521425
     2.792254      1.853945     10.516054
     2.745373      1.839212     10.531099
     2.764456      1.850802     10.537950
     2.668593      1.866530     10.530963
     2.836558      1.859609     10.548428
     2.725037      1.850308     10.557757
     2.782930      1.836679     10.561505
     2.693337      1.865250     10.558717
     2.730872      1.841605     10.574404
     2.826025      1.852331     10.566972
     2.655474      1.865936     10.592200
     2.803591      1.847378     10.558700
     2.699503      1.854086     10.578726
     2.765211      1.836491     10.594461
     2.819054      1.845904     10.593933
     2.850320      1.863968     10.592940
     2.694218      1.852602     10.594642
     2.901349      2.072603      9.204849
     2.765987      2.073113      9.227229
     2.845136      2.064540      9.206522
     2.900468      2.064256      9.232548
     2.820586      2.064822      9.238984
     2.785528      2.065396      9.238449
     2.816418      2.053571      9.255522
     2.861841      2.062705      9.270053
     2.755824      2.064580      9.272759
     2.925520      2.061615      9.255926
     2.940428      2.073311      9.253815
     2.794398      2.064837      9.271939
     2.772388      2.052885      9.274279
     2.873259      2.052000      9.283260
     2.803876      2.052617      9.302140
     2.719338      2.064025      9.291313
     2.853555      2.051923      9.305745
     2.906954      2.061386      9.298845
     2.732046      2.065818      9.310029
     2.922356      2.070816      9.284562
     2.782361      2.052468      9.298390
     2.739478      2.052603      9.317710
     2.799345      2.042037      9.314718
     2.922891      2.056897      9.310554
     2.832183      2.044439      9.331011
     2.848324      2.041604      9.316187
     2.716706      2.053682      9.342554
     2.965456      2.070884      9.333665
     2.748485      2.041381      9.331796
     2.888277      2.045293      9.316496
     2.823713      2.040489      9.356865
     2.926674      2.055680      9.349606
     2.708662      2.047452      9.373626
     2.825969      2.029479      9.368022
     2.917069      2.050201      9.368180
     2.752284      2.043814      9.372789
     2.959948      2.060495      9.359618
     2.976386      2.076741      9.358084
     2.780703      2.040095      9.391962
     2.800063      2.026629      9.399788
     2.832556      2.030291      9.389569
     2.863034      2.039824      9.383051
     2.706796      2.053006      9.401048
     2.746440      2.036054      9.397002
     2.911238      2.040562      9.368157
     2.759420      2.028245      9.389628
     2.960477      2.054525      9.395910
     2.969783      2.069712      9.387933
     2.757200      2.025098      9.417531
     2.729441      2.039463      9.412230
     2.935375      2.049979      9.416560
     2.690186      2.065941      9.424460
     2.780130      2.030635      9.417831
     2.843664      2.028478      9.422051
     2.908397      2.029540      9.418180
     2.944526      2.060291      9.429139
     2.814855      2.023973      9.434276
     2.852871      2.024612      9.439510
     2.713442      2.028485      9.440413
     2.742233      2.029028      9.436944
     2.922991      2.039212      9.423055
     2.977511      2.066826      9.427967
     2.777733      2.018658      9.437678
     2.700438      2.040842      9.467240
     2.835158      2.030537      9.456891
     2.954546      2.049253      9.444131
     2.750958      2.017723      9.461037
     2.884137      2.029082      9.466983
     2.663555      2.068485      9.477500
     2.774397      2.007769      9.463756
     2.801803      2.018596      9.468995
     2.856796      2.018121      9.464282
     2.726282      2.028204      9.475940
     2.942806      2.050832      9.472171
     2.679963      2.055429      9.460345
     2.745614      2.006633      9.489625
     2.917128      2.034824      9.484105
     2.938171      2.034125      9.491592
     2.981563      2.066252      9.469972
     2.801903      2.007863      9.488016
     2.900475      2.018608      9.493477
     2.711007      2.028086      9.507568
     2.660071      2.065820      9.501907
     2.721782      2.018428      9.531451
     2.838981      2.017367      9.502536
     2.686336      2.046232      9.501710
     2.966787      2.043802      9.514575
     3.006787      2.073101      9.490970
     2.837294      2.007604      9.514080
     2.887189      2.018732      9.522217
     2.765966      1.996564      9.531292
     2.773056      2.007432      9.526818
     2.913217      2.026115      9.513801
     2.815995      2.007079      9.540829
     2.737038      2.007254      9.546246
     2.675541      2.038722      9.513121
     2.691067      2.034411      9.536919
     2.993258      2.060504      9.522329
     2.644858      2.059252      9.555160
     2.690187      2.020830      9.567229
     2.886766      2.009170      9.539471
     2.943486      2.036671      9.531922
     2.670725      2.039839      9.565872
     3.013363      2.076948      9.524803
     2.738987      1.996054      9.560039
     2.810009      1.996007      9.553677
     2.870566      2.007798      9.570904
     2.922358      2.016153      9.552580
     2.962887      2.031042      9.553992
     2.777035      2.009686      9.578654
     2.710179      2.006496      9.565742
     2.982599      2.047400      9.559477
     2.657222      2.061112      9.564983
     3.011424      2.070494      9.566366
     2.952807      2.033652      9.580391
     2.723920      1.996164      9.608852
     2.757156      1.997041      9.586365
     2.865146      1.997627      9.578051
     2.910513      2.020529      9.584561
     2.687422      2.039769      9.592265
     2.628001      2.070739      9.588148
     3.023656      2.066882      9.576186
     2.835810      1.996185      9.621892
     2.706653      2.007687      9.606398
     2.680327      2.024462      9.599384
     2.649270      2.041489      9.621489
     2.765110      1.986456      9.605025
     2.797162      1.987005      9.592179
     2.821660      1.996153      9.599927
     2.902679      2.004701      9.590598
     2.919225      2.010339      9.603506
     2.955120      2.023932      9.607258
     3.031021      2.082877      9.610059
     2.714611      1.985782      9.645602
     2.975555      2.037350      9.602755
     2.623252      2.062795      9.636526
     2.715482      2.005594      9.627079
     2.851612      1.986466      9.615484
     2.674541      2.024111      9.637837
     2.949804      2.014149      9.634636
     2.995955      2.057429      9.609765
     2.872873      1.997652      9.637937
     3.052396      2.102146      9.640565
     2.742575      1.985826      9.648169
     2.770167      1.986021      9.663327
     2.792945      1.973695      9.656398
     2.902620      1.998495      9.658108
     2.688571      2.005342      9.637300
     2.646497      2.031667      9.645975
     3.040749      2.071405      9.660002
     2.819187      1.985920      9.652517
     2.937831      2.011868      9.654038
     2.658537      2.029118      9.667820
     3.013660      2.064531      9.629465
     2.744935      1.975598      9.657741
     2.851453      1.982929      9.659115
     2.921374      2.010154      9.661241
     2.972064      2.032777      9.653046
     3.006055      2.054323      9.658306
     2.604452      2.069586      9.676927
     2.839798      1.988272      9.683873
     2.896314      1.987632      9.668759
     2.957672      2.021348      9.666438
     2.673415      2.018725      9.681102
     2.991459      2.039511      9.672632
     2.626380      2.062872      9.682019
     2.908673      2.000124      9.687355
     3.020973      2.063638      9.690423
     3.046635      2.075134      9.695288
     2.786203      1.974669      9.693035
     2.716985      1.981235      9.695877
     2.893329      1.987011      9.702703
     2.676592      2.000710      9.709335
     2.638831      2.038811      9.706214
     2.745283      1.975132      9.704994
     2.809352      1.965807      9.720556
     2.699564      1.985983      9.692812
     2.922559      1.995366      9.696567
     2.955255      2.019597      9.711444
     2.970038      2.032449      9.707393
     2.621993      2.046596      9.700668
     2.999380      2.043929      9.682035
     2.598317      2.067975      9.724674
     2.847316      1.976151      9.697710
     2.867096      1.987384      9.711079
     2.693313      1.983727      9.734795
     2.653618      2.018088      9.734337
     2.991468      2.043877      9.711148
     2.703871      1.975246      9.748154
     2.726054      1.970102      9.728288
     2.781615      1.972792      9.721455
     2.819212      1.975144      9.684106
     2.865264      1.976784      9.726577
     2.679092      2.007678      9.746880
     2.957561      2.011419      9.731895
     3.009237      2.047535      9.740277
     3.042796      2.082312      9.723211
     2.750393      1.966863      9.749701
     2.844854      1.973700      9.742629
     2.937376      1.998956      9.747996
     2.977325      2.022574      9.721690
     2.620547      2.050125      9.741097
     3.030930      2.066138      9.724314
     2.818372      1.967452      9.757895
     2.901363      1.988610      9.756970
[...]
POINT_DATA 9125
VECTORS U float
    -0.097340     -0.163843      0.032941
    -0.087512     -0.162648      0.033435
    -0.085063     -0.161633      0.033631
    -0.079772     -0.161282      0.033718
    -0.099290     -0.164055      0.033210
    -0.096334     -0.163766      0.033628
    -0.108852     -0.163811      0.034304
    -0.098224     -0.163302      0.034029
    -0.087054     -0.161721      0.033984
    -0.105146     -0.163381      0.033953
    -0.100483     -0.164156      0.033899
    -0.082064     -0.161865      0.033923
    -0.076825     -0.160674      0.034354
    -0.084223     -0.161080      0.034239
    -0.093122     -0.161238      0.034428
    -0.089544     -0.161654      0.034365
    -0.108180     -0.162671      0.034710
    -0.073495     -0.159823      0.034560
    -0.097353     -0.162357      0.034494
    -0.084743     -0.159438      0.034757
    -0.103461     -0.162948      0.034670
    -0.095486     -0.161060      0.034801
    -0.075592     -0.159648      0.034629
    -0.109220     -0.161526      0.035556
    -0.080662     -0.159891      0.034617
    -0.101374     -0.161665      0.034974
    -0.087799     -0.159406      0.035024
    -0.076517     -0.159231      0.034772
    -0.068865     -0.159959      0.034682
    -0.101869     -0.161118      0.035239
    -0.109468     -0.135192     -0.029846
    -0.136452     -0.130881     -0.028574
    -0.120776     -0.134733     -0.029884
    -0.109496     -0.134770     -0.028142
    -0.126618     -0.132108     -0.027926
    -0.132545     -0.131195     -0.027782
    -0.126322     -0.132485     -0.026760
    -0.118990     -0.131721     -0.026051
    -0.138678     -0.128241     -0.025363
    -0.104304     -0.134614     -0.026700
    -0.102022     -0.133347     -0.026851
    -0.132184     -0.129365     -0.025718
    -0.134193     -0.129686     -0.025158
    -0.115315     -0.133111     -0.025085
    -0.130079     -0.128756     -0.023362
    -0.144069     -0.125403     -0.023311
    -0.120597     -0.130733     -0.023464
    -0.109523     -0.131748     -0.024043
    -0.144128     -0.124043     -0.022103
    -0.107089     -0.131264     -0.025073
    -0.133509     -0.128182     -0.023401
    -0.141648     -0.124655     -0.021328
    -0.129736     -0.129006     -0.022199
    -0.105405     -0.132726     -0.023236
    -0.125272     -0.128995     -0.021446
    -0.120588     -0.131559     -0.022616
    -0.144931     -0.121666     -0.018806
    -0.095670     -0.131927     -0.021671
    -0.138927     -0.125014     -0.020092
    -0.111838     -0.132957     -0.022700
    -0.127136     -0.127171     -0.019316
    -0.105017     -0.131415     -0.020652
    -0.145863     -0.119552     -0.015979
    -0.125327     -0.128485     -0.018435
    -0.106856     -0.131049     -0.019335
    -0.140545     -0.121556     -0.016905
    -0.096033     -0.132616     -0.019959
    -0.093123     -0.130983     -0.020125
    -0.135845     -0.122405     -0.015792
    -0.130403     -0.125451     -0.015407
    -0.125144     -0.127252     -0.016865
    -0.119140     -0.128142     -0.017767
    -0.148054     -0.117738     -0.013800
    -0.141185     -0.120952     -0.014726
    -0.106706     -0.132675     -0.019261
    -0.137261     -0.123241     -0.015484
    -0.095032     -0.132847     -0.017498
    -0.094260     -0.130895     -0.018132
    -0.138143     -0.122274     -0.013151
    -0.144429     -0.119091     -0.013158
    -0.102523     -0.130688     -0.015969
    -0.152485     -0.115999     -0.011836
    -0.135231     -0.122634     -0.013590
    -0.123362     -0.126642     -0.014375
    -0.106409     -0.132616     -0.015530
    -0.101267     -0.129043     -0.015091
    -0.128589     -0.124990     -0.012873
    -0.120749     -0.127389     -0.013097
    -0.144811     -0.118779     -0.010363
    -0.142231     -0.119892     -0.011322
    -0.104294     -0.131629     -0.015360
    -0.090813     -0.131724     -0.015336
    -0.134135     -0.123646     -0.011879
    -0.149042     -0.116298     -0.008080
    -0.127116     -0.123408     -0.011404
    -0.096102     -0.132122     -0.014037
    -0.139476     -0.121137     -0.009487
    -0.113868     -0.128076     -0.011427
    -0.157089     -0.115232     -0.007257
    -0.133530     -0.124236     -0.009704
    -0.131035     -0.123515     -0.009813
    -0.119176     -0.127914     -0.011195
    -0.145079     -0.117768     -0.007788
    -0.100562     -0.129466     -0.011934
    -0.152898     -0.115643     -0.008543
    -0.139217     -0.121546     -0.007051
    -0.106002     -0.129510     -0.010693
    -0.099443     -0.131975     -0.010453
    -0.088689     -0.131894     -0.012456
    -0.129482     -0.124821     -0.008279
    -0.107810     -0.131114     -0.009683
    -0.147123     -0.116670     -0.004863
    -0.157585     -0.115217     -0.005193
    -0.145118     -0.117441     -0.003044
    -0.125081     -0.124195     -0.007732
    -0.152154     -0.115215     -0.005138
    -0.090665     -0.133508     -0.009021
    -0.079642     -0.134356     -0.011274
    -0.123788     -0.125657     -0.006767
    -0.111915     -0.128670     -0.007124
    -0.134774     -0.122821     -0.003912
    -0.135568     -0.121528     -0.004443
    -0.105666     -0.130367     -0.008323
    -0.128236     -0.123207     -0.004096
    -0.142220     -0.118974     -0.002087
    -0.151920     -0.115520     -0.003892
    -0.150571     -0.115462     -0.002185
    -0.083088     -0.134076     -0.008794
    -0.158986     -0.115499     -0.000586
    -0.148953     -0.115805      0.000490
    -0.110399     -0.130161     -0.005779
    -0.097849     -0.131559     -0.007438
    -0.153855     -0.114974      0.000366
    -0.077261     -0.134300     -0.008931
    -0.140338     -0.120138     -0.000912
    -0.127353     -0.124462     -0.002923
    -0.115394     -0.127101     -0.002847
    -0.101299     -0.132858     -0.005574
    -0.089935     -0.134991     -0.006050
    -0.136763     -0.119215     -0.000148
    -0.144723     -0.117428      0.000157
    -0.085072     -0.134490     -0.005912
    -0.158657     -0.115018     -0.000001
    -0.076985     -0.134534     -0.005897
    -0.093794     -0.132774     -0.003919
    -0.142428     -0.118089      0.003497
    -0.137972     -0.119965      0.000939
    -0.115029     -0.128277     -0.002185
    -0.105785     -0.129549     -0.002759
    -0.153097     -0.114464      0.002249
    -0.162268     -0.116576      0.001864
    -0.071809     -0.136853     -0.005398
    -0.123972     -0.123225      0.002315
    -0.145895     -0.116441      0.003538
    -0.150925     -0.115106      0.003197
    -0.156432     -0.114888      0.005085
    -0.134596     -0.121582      0.002344
    -0.128701     -0.123651      0.000583
    -0.126255     -0.123079      0.000743
    -0.105325     -0.131661     -0.002156
    -0.101467     -0.132484     -0.001530
    -0.091446     -0.134579     -0.001907
    -0.069558     -0.135582     -0.003100
    -0.141597     -0.118300      0.006702
    -0.085913     -0.134956     -0.002584
    -0.161174     -0.116599      0.005937
    -0.145011     -0.116526      0.005087
    -0.117238     -0.127489      0.001256
    -0.151603     -0.114769      0.006392
    -0.092002     -0.135120      0.000305
    -0.080660     -0.134385     -0.002428
    -0.113589     -0.127505      0.002590
    -0.060269     -0.137232     -0.001429
    -0.139035     -0.119539      0.006353
    -0.134228     -0.120633      0.007052
    -0.127499     -0.124156      0.005901
    -0.105097     -0.130874      0.003359
    -0.147172     -0.115862      0.006373
    -0.155068     -0.114864      0.007254
    -0.063186     -0.139139      0.000342
    -0.125187     -0.123463      0.005182
    -0.096168     -0.133413      0.002087
    -0.153880     -0.114602      0.008900
    -0.073961     -0.136154     -0.001373
    -0.136648     -0.120962      0.007033
    -0.117175     -0.126733      0.004919
    -0.101433     -0.131237      0.003112
    -0.086270     -0.134756      0.001321
    -0.075239     -0.136682      0.000915
    -0.162949     -0.118359      0.008945
    -0.122139     -0.123358      0.007425
    -0.105171     -0.131656      0.004359
    -0.090224     -0.134317      0.002659
    -0.151085     -0.114679      0.009934
    -0.079310     -0.136512      0.002339
    -0.161186     -0.116316      0.009538
    -0.103948     -0.130519      0.005584
    -0.068954     -0.138208      0.002819
    -0.059995     -0.139913      0.002687
    -0.129157     -0.122965      0.009007
    -0.140752     -0.118716      0.010559
    -0.106129     -0.130800      0.007132
    -0.147334     -0.116474      0.012031
    -0.156465     -0.115759      0.011686
    -0.136399     -0.120949      0.010651
    -0.122839     -0.126530      0.010340
    -0.143147     -0.117480      0.010640
    -0.098981     -0.133221      0.005801
    -0.090459     -0.134197      0.006107
    -0.086290     -0.134512      0.005443
    -0.158468     -0.116880      0.011144
    -0.076442     -0.137112      0.002830
    -0.161992     -0.120058      0.012305
    -0.117273     -0.126860      0.008061
    -0.113778     -0.127451      0.008581
    -0.142550     -0.118939      0.013607
    -0.151566     -0.116660      0.013792
    -0.078726     -0.136405      0.005114
    -0.139885     -0.120434      0.014332
    -0.137288     -0.121223      0.012582
    -0.129163     -0.123676      0.011083
    -0.123328     -0.124624      0.007699
    -0.112113     -0.129364      0.009623
    -0.147614     -0.117529      0.014517
    -0.088110     -0.136000      0.007499
    -0.070634     -0.139508      0.006601
    -0.060651     -0.139409      0.004600
    -0.133002     -0.123323      0.013604
    -0.117116     -0.127868      0.011327
    -0.094181     -0.134818      0.009224
    -0.081879     -0.137285      0.006231
    -0.158154     -0.118416      0.013797
    -0.064073     -0.139869      0.004945
    -0.121166     -0.127474      0.012858
    -0.103786     -0.131841      0.010935
    -0.146243     -0.119210      0.016833
    -0.131895     -0.124439      0.014968
    -0.135301     -0.122729      0.014437
    -0.082240     -0.137913      0.010282
    -0.149356     -0.118328      0.016332
    -0.152681     -0.118416      0.016994
    -0.124220     -0.127342      0.014690
    -0.105642     -0.132107      0.012116
    -0.158742     -0.120792      0.016002
    -0.069402     -0.139430      0.007354
    -0.161222     -0.121852      0.015079
    -0.116963     -0.130495      0.013417
    -0.115841     -0.129390      0.013714
    -0.138591     -0.121605      0.016566
    -0.127598     -0.127124      0.016477
    -0.154332     -0.120983      0.017619
    -0.075167     -0.139019      0.009756
    -0.069910     -0.140412      0.009872
    -0.059044     -0.141631      0.008129
    -0.136423     -0.124050      0.017685
    -0.098872     -0.133948      0.013321
    -0.143319     -0.121363      0.017977
    -0.092956     -0.135914      0.011821
    -0.084735     -0.138352      0.011921
    -0.061225     -0.142444      0.010759
    -0.122145     -0.129922      0.016386
    -0.105095     -0.133642      0.015061
    -0.144812     -0.123723      0.019491
    -0.080202     -0.139657      0.013090
    -0.149397     -0.122523      0.019362
    -0.068629     -0.142209      0.012451
    -0.157271     -0.124175      0.018362
    -0.129000     -0.128616      0.017844
    -0.122700     -0.130337      0.016471
    -0.132928     -0.126531      0.017996
    -0.115596     -0.132386      0.015934
    -0.104797     -0.135188      0.015491
    -0.138721     -0.124689      0.018751
    -0.098467     -0.135991      0.014370
    -0.159815     -0.127127      0.018563
    -0.106865     -0.135896      0.016272
    -0.155020     -0.126269      0.019572
    -0.162297     -0.132894      0.019665
    -0.134700     -0.127833      0.019296
    -0.095669     -0.137238      0.015318
    -0.150845     -0.126424      0.021151
    -0.068028     -0.144048      0.014035
    -0.060875     -0.143336      0.012698
    -0.156555     -0.128315      0.020313
    -0.114254     -0.134977      0.017537
    -0.104046     -0.137464      0.017411
    -0.086518     -0.140609      0.015900
    -0.145908     -0.126310      0.021052
    -0.153178     -0.125097      0.020089
    -0.057194     -0.145042      0.014476
    -0.157908     -0.131103      0.020658
    -0.132267     -0.130776      0.020720
    -0.126086     -0.133044      0.019694
    -0.114241     -0.136109      0.017841
    -0.079621     -0.143159      0.017107
    -0.074698     -0.143223      0.016581
    -0.133509     -0.134150      0.022400
    -0.089960     -0.140725      0.017101
    -0.145889     -0.129408      0.022831
    -0.151513     -0.131140      0.022632
    -0.116912     -0.136492      0.019250
    -0.106004     -0.138927      0.018928
    -0.102291     -0.141103      0.019310
    -0.092557     -0.141239      0.018089
    -0.137488     -0.128573      0.020829
    -0.139213     -0.132597      0.022810
    -0.153605     -0.133023      0.022575
    -0.157055     -0.134270      0.022169
    -0.052827     -0.144280      0.012614
    -0.127479     -0.134412      0.020922
    -0.120044     -0.136158      0.019784
    -0.095528     -0.141527      0.018740
    -0.060834     -0.145771      0.015309
    -0.130570     -0.136484      0.022300
    -0.109826     -0.141087      0.020049
    -0.108985     -0.139343      0.019308
    -0.083365     -0.143762      0.018366
    -0.160035     -0.138393      0.022131
    -0.054170     -0.146688      0.016859
    -0.127595     -0.138683      0.022400
    -0.122722     -0.139082      0.021479
    -0.090186     -0.143198      0.019770
    -0.139924     -0.138628      0.024211
    -0.066997     -0.146743      0.018102
    -0.116938     -0.142327      0.021739
    -0.095449     -0.143538      0.020136
    -0.146300     -0.133135      0.023455
    -0.064400     -0.146792      0.018709
    -0.057515     -0.147532      0.017576
    -0.163739     -0.145281      0.022573
    -0.112775     -0.143375      0.021588
    -0.073877     -0.147024      0.019454
    -0.064079     -0.148952      0.019090
    -0.154456     -0.138756      0.023377
    -0.109677     -0.141655      0.020555
    -0.083498     -0.145703      0.020884
    -0.147880     -0.138390      0.024236
    -0.062023     -0.148517      0.019250
    -0.053497     -0.150105      0.018879
    -0.045703     -0.149445      0.018011
    -0.130940     -0.141357      0.023726
    -0.123711     -0.142225      0.022357
    -0.094247     -0.147219      0.022443
    -0.134425     -0.139145      0.023876
    -0.087494     -0.145274      0.020957
    -0.144582     -0.138120      0.024444
    -0.159521     -0.145166      0.023581
    -0.108683     -0.145586      0.022049
    -0.107345     -0.144048      0.021191
    -0.092910     -0.146440      0.022071
    -0.088732     -0.147071      0.022353
    -0.075822     -0.148072      0.021183
    -0.144362     -0.140453      0.025150
    -0.066613     -0.149145      0.020257
    -0.152383     -0.141216      0.024185
    -0.148738     -0.143849      0.025085
    -0.049911     -0.150423      0.019719
    -0.039359     -0.151738      0.018891
    -0.111568     -0.147589      0.023311
    -0.108650     -0.147209      0.022783
    -0.133325     -0.142689      0.024335
    -0.138827     -0.145109      0.025750
    -0.142219     -0.144129      0.025783
    -0.150913     -0.146853      0.025450
    -0.154703     -0.145619      0.024823
    -0.052153     -0.150994      0.019941
    -0.161337     -0.149172      0.024103
    -0.118778     -0.145896      0.023037
    -0.115348     -0.148509      0.023640
    -0.126813     -0.145126      0.024211
    -0.093832     -0.147960      0.023024
    -0.081906     -0.147460      0.022410
    -0.049830     -0.151929      0.021083
    -0.162526     -0.152024      0.024602
    -0.109517     -0.148251      0.023319
    -0.126097     -0.146544      0.024925
    -0.077735     -0.148986      0.023144
    -0.070818     -0.149138      0.021208
    -0.054008     -0.152370      0.021544
    -0.036689     -0.153475      0.020526
    -0.097586     -0.148651      0.023354
    -0.134507     -0.146383      0.025547
    -0.146934     -0.147846      0.025848
    -0.158855     -0.150879      0.024847
    -0.041727     -0.153306      0.020978
    -0.121106     -0.150875      0.025296
    -0.112304     -0.149511      0.024149
    -0.104567     -0.150029      0.024121
    -0.128941     -0.149408      0.025508
    -0.066978     -0.151387      0.022826
    -0.062098     -0.151994      0.022415
    -0.152567     -0.150710      0.025949
    -0.162664     -0.155051      0.025063
    -0.102233     -0.149295      0.023614
    -0.095512     -0.150476      0.024394
    -0.086152     -0.150037      0.024447
    -0.131211     -0.148985      0.026074
    -0.141440     -0.148743      0.026496
    -0.048435     -0.153565      0.022075
    -0.162650     -0.156509      0.025929
    -0.132302     -0.152665      0.026814
    -0.060472     -0.153502      0.023929
    -0.158565     -0.153417      0.025438
    -0.034151     -0.155562      0.021979
    -0.116449     -0.152486      0.025420
    -0.104956     -0.152143      0.025191
    -0.098646     -0.152560      0.025402
    -0.075671     -0.151281      0.024665
    -0.138856     -0.153398      0.026990
    -0.057901     -0.154719      0.024895
    -0.148770     -0.152862      0.026468
    -0.045198     -0.154952      0.022963
    -0.162044     -0.158599      0.025849
    -0.121928     -0.152894      0.026561
    -0.111887     -0.153553      0.026001
    -0.079413     -0.150920      0.025135
    -0.142160     -0.155019      0.027093
    -0.054091     -0.154167      0.023643
    -0.036662     -0.157757      0.024502
    -0.025945     -0.157554      0.022755
    -0.100333     -0.153303      0.025830
    -0.086964     -0.151624      0.025502
    -0.076356     -0.151757      0.026097
    -0.067819     -0.153054      0.025049
    -0.150161     -0.156246      0.027368
    -0.153646     -0.156084      0.026665
    -0.100390     -0.153606      0.026222
    -0.126854     -0.152540      0.026869
    -0.048141     -0.156065      0.024835
    -0.160778     -0.161933      0.026706
    -0.161748     -0.160690      0.026873
    -0.027066     -0.158390      0.023451
    -0.105791     -0.154577      0.026765
    -0.091742     -0.153361      0.026543
    -0.088114     -0.153649      0.026733
    -0.137356     -0.157470      0.027793
    -0.153371     -0.159419      0.027301
    -0.094804     -0.154068      0.026894
    -0.079914     -0.152930      0.026692
    -0.059229     -0.155783      0.026306
    -0.143881     -0.154593      0.027399
    -0.042012     -0.157606      0.025593
    -0.023196     -0.159953      0.024360
    -0.117174     -0.156393      0.027675
    -0.122972     -0.155378      0.027684
    -0.083805     -0.153516      0.027172
    -0.139949     -0.158442      0.028411
    -0.027654     -0.159442      0.025004
    -0.111808     -0.156036      0.027383
    -0.072342     -0.154651      0.027201
    -0.134715     -0.158066      0.028479
    -0.065160     -0.155563      0.027137
    -0.146043     -0.157788      0.027956
    -0.036975     -0.159241      0.025975
    -0.158995     -0.164283      0.027361
    -0.106695     -0.156848      0.028052
    -0.099693     -0.156459      0.027959
    -0.094028     -0.156026      0.027929
    -0.090165     -0.155249      0.028005
    -0.122531     -0.158654      0.028830
    -0.086265     -0.155289      0.027802
    -0.126469     -0.156643      0.028070
    -0.152473     -0.162780      0.028108
    -0.110616     -0.157858      0.028395
    -0.103104     -0.155651      0.027629
    -0.119816     -0.157916      0.028374
    -0.079367     -0.153817      0.027545
    -0.073949     -0.154661      0.027970
    -0.135350     -0.162590      0.029340
    -0.048117     -0.158105      0.026899
    -0.146788     -0.161791      0.029128
    -0.157912     -0.165050      0.028322
    -0.016951     -0.161174      0.025002
    -0.127578     -0.161026      0.029606
    -0.059782     -0.157136      0.027903