# vtk DataFile Version 2.0
3dbefore_M1
ASCII
DATASET UNSTRUCTURED_GRID
POINTS 9125 float
     2.690721      1.751270     10.420013
     2.732949      1.752069     10.454560
     2.740340      1.741054     10.470560
     2.767512      1.752191     10.471767
     2.674115      1.740237     10.446687
     2.683359      1.740497     10.494204
     2.612467      1.752335     10.522842
     2.667041      1.730550     10.530039
     2.725394      1.736832     10.510492
     2.633230      1.741030     10.495705
     2.658568      1.741534     10.521729
     2.753042      1.753017     10.502438
     2.773054      1.750598     10.535983
     2.736776      1.736150     10.530454
     2.687595      1.718645     10.545557
     2.707788      1.731546     10.552453
     2.608731      1.742064     10.546063
     2.784129      1.746704     10.563141
     2.666688      1.728787     10.572424
     2.727109      1.720510     10.576243
     2.634338      1.742264     10.573715
     2.672851      1.721604     10.589267
     2.772896      1.739220     10.581719
     2.595961      1.742962     10.607961
     2.749031      1.732311     10.573394
     2.640838      1.732566     10.593882
     2.708863      1.720266     10.609482
     2.765562      1.733366     10.608802
     2.799416      1.753439     10.607834
     2.635600      1.731596     10.610016
     2.822498      1.967200      9.190106
     2.677480      1.957108      9.212030
     2.762101      1.953769      9.191298
     2.821112      1.959578      9.218592
     2.735282      1.953543      9.224496
     2.698146      1.951368      9.223736
     2.730809      1.942067      9.241449
     2.778891      1.956269      9.256800
     2.665947      1.949878      9.258934
     2.847700      1.960098      9.242902
     2.863741      1.973868      9.240917
     2.706850      1.953071      9.258270
     2.683906      1.939222      9.260634
     2.791231      1.946298      9.270502
     2.716661      1.942967      9.289691
     2.627728      1.948375      9.278302
     2.769603      1.945939      9.293644
     2.827127      1.960242      9.287027
     2.640146      1.952418      9.297781
     2.843652      1.971322      9.272445
     2.693979      1.941139      9.285754
     2.648194      1.940006      9.305872
     2.712021      1.932291      9.302771
     2.844382      1.957054      9.299257
     2.746321      1.937877      9.319706
     2.764112      1.934882      9.304382
     2.624597      1.941736      9.331965
     2.890820      1.975748      9.323591
     2.657980      1.929982      9.320631
     2.807221      1.941862      9.305047
     2.737035      1.934843      9.346591
     2.848250      1.957516      9.339653
     2.616271      1.937063      9.364511
     2.739726      1.923538      9.358128
     2.837849      1.951542      9.358766
     2.661044      1.935744      9.363394
     2.884975      1.964736      9.350295
     2.902948      1.983398      9.348935
     2.690975      1.934455      9.383348
     2.712065      1.921067      9.391400
     2.746319      1.926103      9.380587
     2.779117      1.937831      9.373902
     2.613714      1.944151      9.393197
     2.654925      1.928558      9.388740
     2.831878      1.940372      9.358637
     2.669183      1.920354      9.380952
     2.885905      1.959019      9.387827
     2.895862      1.976123      9.379720
     2.666666      1.918310      9.410143
     2.637076      1.932076      9.404791
     2.857904      1.953853      9.409103
     2.595966      1.957124      9.417706
     2.690550      1.925523      9.410393
     2.758032      1.926436      9.414568
     2.829065      1.929791      9.410551
     2.867860      1.966068      9.422324
     2.727411      1.920750      9.427410
     2.768178      1.923329      9.432785
     2.621327      1.920855      9.434391
     2.650368      1.922880      9.430537
     2.844645      1.941473      9.415730
     2.905195      1.973703      9.421276
     2.688494      1.913251      9.431085
     2.607237      1.934171      9.462541
     2.748147      1.930536      9.451078
     2.879747      1.954108      9.437825
     2.659999      1.912171      9.455619
     2.802134      1.930665      9.461462
     2.568405      1.959127      9.473202
     2.685376      1.902323      9.458264
     2.713553      1.915979      9.463738
     2.772662      1.917339      9.458594
     2.633815      1.923039      9.471449
     2.866407      1.956634      9.466959
     2.585887      1.947067      9.455350
     2.654814      1.901040      9.485453
     2.838282      1.938592      9.479255
     2.861951      1.938156      9.486985
     2.910468      1.973652      9.464842
     2.714217      1.904788      9.483520
     2.820749      1.920013      9.488913
     2.618402      1.923038      9.504701
     2.565039      1.956763      9.498779
     2.629730      1.914320      9.529638
     2.752702      1.917984      9.498712
     2.592579      1.939737      9.498670
     2.894571      1.949319      9.511019
     2.939863      1.981139      9.486679
     2.751511      1.907232      9.510681
     2.806080      1.920809      9.519025
     2.676825      1.892598      9.529007
     2.683581      1.904754      9.524380
     2.834572      1.929248      9.510161
     2.728872      1.906924      9.538840
     2.645636      1.903754      9.544991
     2.582222      1.931482      9.510683
     2.598009      1.929019      9.535553
     2.924691      1.967861      9.519215
     2.550243      1.949984      9.554592
     2.597922      1.915903      9.567317
     2.806247      1.910369      9.536918
     2.868301      1.941675      9.529055
     2.577306      1.933589      9.565906
     2.947749      1.985829      9.521890
     2.648226      1.892309      9.559392
     2.723317      1.894697      9.552201
     2.788292      1.909885      9.569914
     2.845553      1.918707      9.550400
     2.890969      1.935529      9.551918
     2.687370      1.909700      9.578794
     2.618781      1.902249      9.565642
     2.913117      1.953868      9.557764
     2.562501      1.953378      9.564865
     2.945961      1.979374      9.565058
     2.879604      1.938934      9.579489
     2.633295      1.893316      9.610703
     2.667268      1.895237      9.586919
     2.782995      1.898488      9.577275
     2.832260      1.924482      9.583961
     2.594071      1.935709      9.593520
     2.533166      1.959996      9.588989
     2.960296      1.975275      9.575155
     2.750489      1.898452      9.623580
     2.615325      1.904403      9.608260
     2.587972      1.919658      9.601010
     2.556236      1.934380      9.624115
     2.676531      1.884421      9.606316
     2.710316      1.885749      9.592575
     2.735514      1.897197      9.600633
     2.824422      1.906628      9.590102
     2.842593      1.913270      9.603530
     2.882816      1.928446      9.607391
     2.969494      1.992726      9.610480
     2.624889      1.882509      9.649131
     2.905812      1.943234      9.602751
     2.529774      1.952593      9.639638
     2.624429      1.903236      9.629882
     2.768794      1.887067      9.616491
     2.582572      1.919542      9.641260
     2.877173      1.918149      9.635900
     2.928975      1.965429      9.610173
     2.791577      1.900375      9.639983
     2.996409      2.011911      9.642057
     2.653072      1.884020      9.651692
     2.682240      1.885672      9.667367
     2.707169      1.872493      9.659689
     2.824625      1.901722      9.660759
     2.597633      1.901337      9.640643
     2.554293      1.924757      9.649739
     2.982152      1.979613      9.662153
     2.733862      1.887127      9.655667
     2.863503      1.916285      9.656273
     2.566652      1.923677      9.672602
     2.949913      1.972919      9.630597
     2.656394      1.873101      9.661538
     2.768905      1.884541      9.662212
     2.844940      1.914773      9.663991
     2.902399      1.938957      9.655192
     2.941753      1.961924      9.660561
     2.511735      1.957434      9.681707
     2.755549      1.891489      9.688453
     2.818225      1.889900      9.671818
     2.886114      1.926825      9.669172
     2.582129      1.914681      9.686499
     2.925082      1.946178      9.675473
     2.533574      1.953831      9.687240
     2.831229      1.904444      9.691360
     2.960052      1.971571      9.693860
     2.989931      1.983318      9.698746
     2.700260      1.874201      9.698108
     2.628078      1.878394      9.701565
     2.815055      1.889984      9.707337
     2.586889      1.896108      9.715744
     2.547530      1.931509      9.712513
     2.657456      1.873121      9.710834
     2.725780      1.864822      9.726324
     2.610245      1.882479      9.698469
     2.846942      1.899134      9.700686
     2.883846      1.925405      9.716099
     2.900760      1.939130      9.711854
     2.530536      1.937236      9.706625
     2.934451      1.950872      9.685215
     2.507370      1.955097      9.731329
     2.765027      1.877733      9.702507
     2.786128      1.890493      9.716431
     2.605127      1.879121      9.742010
     2.563903      1.911778      9.741731
     2.925846      1.950936      9.715579
     2.616594      1.870623      9.755744
     2.638769      1.866557      9.735008
     2.696138      1.871763      9.727639
     2.734849      1.875875      9.688563
     2.785051      1.878543      9.732351
     2.590075      1.902986      9.754764
     2.887074      1.916362      9.737211
     2.947554      1.954065      9.745560
     2.986407      1.990845      9.727783
     2.664493      1.863936      9.757062
     2.763066      1.874905      9.749244
     2.864026      1.903342      9.754096
     2.909761      1.928039      9.726457
     2.530356      1.940283      9.748584
     2.972524      1.973734      9.728906
     2.735681      1.866932      9.765154
     2.824295      1.892150      9.763792
[...]
POINT_DATA 9125
VECTORS U float
     0.034759     -0.009889     -0.029843
     0.023095     -0.001293     -0.030100
     0.019388      0.000386     -0.030351
     0.013074      0.005040     -0.030206
     0.038165     -0.010834     -0.030154
     0.035470     -0.005853     -0.030177
     0.056623     -0.011430     -0.029285
     0.038733     -0.006131     -0.030327
     0.022808      0.001249     -0.030383
     0.049161     -0.011861     -0.029740
     0.042528     -0.006933     -0.029996
     0.017006      0.005682     -0.030131
     0.010429      0.011394     -0.030225
     0.019283      0.004491     -0.030428
     0.031185     -0.002864     -0.030654
     0.026913      0.001621     -0.030397
     0.056339     -0.010723     -0.029451
     0.005694      0.015457     -0.030217
     0.038294     -0.003208     -0.030211
     0.019400      0.005624     -0.030552
     0.049036     -0.006053     -0.029652
     0.035369     -0.001658     -0.030298
     0.008064      0.014523     -0.030264
     0.059441     -0.008941     -0.029360
     0.014511      0.009605     -0.030385
     0.045676     -0.004625     -0.029839
     0.024215      0.005401     -0.030317
     0.008958      0.015259     -0.030219
     0.000414      0.022318     -0.029965
     0.046824     -0.004326     -0.029779
     0.006381     -0.014346      0.020450
     0.035047     -0.052571      0.016577
     0.018015     -0.030159      0.019197
     0.005037     -0.013205      0.019134
     0.023725     -0.036957      0.017216
     0.030137     -0.046446      0.016298
     0.022269     -0.036802      0.015971
     0.014579     -0.024336      0.016787
     0.035825     -0.054381      0.013788
    -0.001372     -0.004767      0.018753
    -0.002917     -0.001625      0.019411
     0.028939     -0.043940      0.014951
     0.030475     -0.048535      0.013865
     0.009585     -0.019448      0.016172
     0.025538     -0.039326      0.013494
     0.042093     -0.062833      0.011832
     0.015103     -0.025113      0.014665
     0.003788     -0.009620      0.016640
     0.041412     -0.059394      0.011461
     0.001901     -0.006043      0.017926
     0.029347     -0.045158      0.013055
     0.038024     -0.055912      0.011006
     0.024529     -0.039079      0.012495
    -0.001014     -0.004007      0.016421
     0.019413     -0.030284      0.012726
     0.014367     -0.025460      0.013744
     0.042482     -0.060250      0.009286
    -0.010278      0.007391      0.016600
     0.034594     -0.051858      0.010333
     0.005138     -0.013474      0.014904
     0.020982     -0.031491      0.011211
    -0.001579     -0.002048      0.014843
     0.043613     -0.060275      0.007565
     0.018473     -0.029610      0.010451
    -0.000007     -0.004173      0.013627
     0.035880     -0.049734      0.008690
    -0.010469      0.007080      0.015161
    -0.012191      0.010419      0.015986
     0.030417     -0.041264      0.008570
     0.024036     -0.034790      0.008405
     0.018111     -0.027287      0.009753
     0.012207     -0.019376      0.011141
     0.046197     -0.059751      0.006592
     0.036435     -0.049388      0.007355
    -0.000706     -0.005073      0.013181
     0.031916     -0.045780      0.007764
    -0.011413      0.008256      0.013543
    -0.011197      0.009558      0.014485
     0.032902     -0.044711      0.006542
     0.040741     -0.052908      0.006413
    -0.004060      0.002104      0.012139
     0.052145     -0.063220      0.005600
     0.029566     -0.039326      0.007303
     0.016126     -0.022593      0.008790
    -0.001233     -0.003972      0.010760
    -0.004410      0.003997      0.012112
     0.021843     -0.029259      0.007419
     0.013364     -0.018956      0.008267
     0.042220     -0.054222      0.004598
     0.037613     -0.047828      0.005504
    -0.002848     -0.000433      0.011252
    -0.013826      0.012550      0.012959
     0.028261     -0.038068      0.006133
     0.047898     -0.056661      0.003578
     0.020017     -0.023583      0.007315
    -0.009846      0.007765      0.011360
     0.034466     -0.043622      0.004476
     0.006683     -0.009607      0.008174
     0.059027     -0.066291      0.002997
     0.027623     -0.036966      0.004716
     0.024636     -0.030609      0.005589
     0.011680     -0.016491      0.007235
     0.041795     -0.049470      0.003552
    -0.005117      0.004936      0.010071
     0.053394     -0.062691      0.003705
     0.034372     -0.042894      0.002923
    -0.000726     -0.000611      0.008524
    -0.006921      0.005179      0.008706
    -0.014808      0.014350      0.011368
     0.023008     -0.029193      0.004548
     0.000551     -0.003862      0.007243
     0.045611     -0.051400      0.002045
     0.060371     -0.065490      0.002001
     0.043026     -0.047214      0.001230
     0.017864     -0.020251      0.005284
     0.052749     -0.058397      0.002131
    -0.013855      0.012445      0.008675
    -0.021834      0.021170      0.011265
     0.016587     -0.019991      0.004482
     0.005149     -0.007021      0.005788
     0.029844     -0.035769      0.001707
     0.030549     -0.034856      0.002370
    -0.000857     -0.000609      0.007008
     0.022008     -0.024421      0.002902
     0.038872     -0.042380      0.000809
     0.053483     -0.059834      0.001238
     0.051434     -0.054832      0.000704
    -0.019308      0.018710      0.009433
     0.064403     -0.065494     -0.000371
     0.050310     -0.052844     -0.000763
     0.003671     -0.006389      0.004795
    -0.007326      0.007021      0.007333
     0.057179     -0.058214     -0.000658
    -0.023092      0.023391      0.010271
     0.036784     -0.040669      0.000079
     0.021388     -0.025043      0.001913
     0.009067     -0.010212      0.003104
    -0.004731      0.002904      0.005408
    -0.014527      0.012641      0.006677
     0.032478     -0.032149      0.000694
     0.044027     -0.047622     -0.000597
    -0.017769      0.017099      0.007397
     0.063435     -0.062234     -0.000324
    -0.023245      0.023869      0.008486
    -0.010164      0.010287      0.005549
     0.041449     -0.042390     -0.002052
     0.034343     -0.035647     -0.000394
     0.008659     -0.011197      0.002338
     0.000474     -0.000018      0.004003
     0.055812     -0.053192     -0.001142
     0.070533     -0.067368     -0.001499
    -0.028048      0.027284      0.008230
     0.018242     -0.017675     -0.000078
     0.046626     -0.046983     -0.002106
     0.054107     -0.053933     -0.002061
     0.063539     -0.060770     -0.003167
     0.031036     -0.032966     -0.001236
     0.023729     -0.026558     -0.000099
     0.020646     -0.021364      0.000431
    -0.000484     -0.001294      0.003055
    -0.003903      0.003181      0.003209
    -0.012497      0.011866      0.004286
    -0.027591      0.028706      0.007533
     0.042248     -0.043135     -0.003986
    -0.016762      0.016437      0.005296
     0.072047     -0.065825     -0.003571
     0.045571     -0.044243     -0.002682
     0.011347     -0.013531      0.000212
     0.056570     -0.053977     -0.003645
    -0.012257      0.011555      0.002876
    -0.019897      0.021126      0.006116
     0.008068     -0.007621      0.000349
    -0.031323      0.031862      0.007069
     0.037592     -0.036526     -0.003289
     0.032086     -0.030246     -0.003289
     0.024225     -0.025371     -0.003004
    -0.000225      0.000692      0.000446
     0.050328     -0.050170     -0.003826
     0.063036     -0.060267     -0.004471
    -0.032560      0.031465      0.005256
     0.020728     -0.020123     -0.001918
    -0.008406      0.009204      0.001907
     0.061482     -0.056737     -0.005032
    -0.024701      0.025833      0.005956
     0.035355     -0.035519     -0.003925
     0.011968     -0.012284     -0.001523
    -0.003426      0.005296      0.001229
    -0.015815      0.016847      0.003233
    -0.023612      0.024740      0.004370
     0.077799     -0.067609     -0.005131
     0.017448     -0.014771     -0.002560
    -0.000333     -0.000358     -0.000477
    -0.012938      0.013996      0.002114
     0.057398     -0.052708     -0.005450
    -0.021001      0.021802      0.003066
     0.073933     -0.063190     -0.005125
    -0.001058      0.002991     -0.000372
    -0.027155      0.028791      0.003731
    -0.033872      0.032985      0.004059
     0.027168     -0.025786     -0.004446
     0.042770     -0.041085     -0.005928
     0.001120     -0.000163     -0.001810
     0.054080     -0.050567     -0.006953
     0.068405     -0.059516     -0.006548
     0.036822     -0.034199     -0.005695
     0.020760     -0.019894     -0.005256
     0.046547     -0.045457     -0.006180
    -0.006196      0.007012     -0.000502
    -0.012042      0.014669      0.000354
    -0.014702      0.017733      0.001182
     0.072087     -0.062913     -0.006383
    -0.022879      0.023798      0.002997
     0.080738     -0.066134     -0.006833
     0.012885     -0.012106     -0.003266
     0.009367     -0.006666     -0.002796
     0.048457     -0.045518     -0.007958
     0.062741     -0.054915     -0.007842
    -0.020107      0.022667      0.001775
     0.045504     -0.042493     -0.008404
     0.040148     -0.037886     -0.007224
     0.028470     -0.025881     -0.005629
     0.019573     -0.019057     -0.003467
     0.008039     -0.006475     -0.003767
     0.056558     -0.048648     -0.007973
    -0.014314      0.015971     -0.000673
    -0.025814      0.027575      0.001079
    -0.031651      0.032919      0.003218
     0.035183     -0.031862     -0.007547
     0.013951     -0.011082     -0.004939
    -0.009776      0.012004     -0.002045
    -0.019011      0.020059      0.000409
     0.074949     -0.061095     -0.007593
    -0.030210      0.031268      0.002566
     0.019766     -0.016669     -0.006299
    -0.000350      0.003548     -0.003558
     0.057262     -0.049424     -0.009665
     0.035395     -0.032875     -0.008752
     0.039617     -0.037485     -0.008577
    -0.017727      0.020307     -0.001888
     0.061966     -0.052695     -0.009310
     0.068602     -0.055333     -0.009475
     0.025177     -0.022036     -0.007878
     0.001861      0.000689     -0.004712
     0.079616     -0.061758     -0.008757
    -0.025731      0.028538      0.000926
     0.083596     -0.064885     -0.008229
     0.015467     -0.013827     -0.006945
     0.013629     -0.009801     -0.006283
     0.044696     -0.038319     -0.009237
     0.031252     -0.027259     -0.009435
     0.073511     -0.059030     -0.010177
    -0.021794      0.024997     -0.000940
    -0.025233      0.028149     -0.000772
    -0.032799      0.033821      0.000798
     0.044173     -0.038575     -0.010515
    -0.004775      0.008619     -0.004682
     0.054026     -0.046249     -0.010496
    -0.011100      0.012994     -0.003743
    -0.016695      0.018377     -0.003378
    -0.030307      0.032890     -0.000925
     0.024455     -0.020315     -0.009173
     0.003157      0.001509     -0.006498
     0.059199     -0.049218     -0.011839
    -0.017734      0.021472     -0.003579
     0.066780     -0.053408     -0.011435
    -0.025288      0.028529     -0.002549
     0.080697     -0.060327     -0.010354
     0.035443     -0.031761     -0.011163
     0.026021     -0.023816     -0.009873
     0.040339     -0.035358     -0.011030
     0.015583     -0.011335     -0.008412
     0.003550     -0.000134     -0.007395
     0.049267     -0.042637     -0.011502
    -0.004284      0.006816     -0.006056
     0.086672     -0.063604     -0.010582
     0.006722     -0.003412     -0.008474
     0.078843     -0.060102     -0.011670
     0.093898     -0.067062     -0.011696
     0.044285     -0.036305     -0.011842
    -0.006219      0.009916     -0.006339
     0.072648     -0.053503     -0.012442
    -0.026129      0.028171     -0.004048
    -0.029333      0.033112     -0.002080
     0.082816     -0.059185     -0.011735
     0.016023     -0.010735     -0.009903
     0.004810     -0.000277     -0.009018
    -0.013212      0.016337     -0.006389
     0.063756     -0.051369     -0.013142
     0.075254     -0.055247     -0.011507
    -0.031292      0.034675     -0.003235
     0.086745     -0.062708     -0.012434
     0.044820     -0.039319     -0.013924
     0.034335     -0.028261     -0.012660
     0.017124     -0.013397     -0.010766
    -0.016864      0.020489     -0.006851
    -0.019245      0.024262     -0.005752
     0.049692     -0.040856     -0.015501
    -0.010179      0.013466     -0.007603
     0.066711     -0.053057     -0.014790
     0.077391     -0.055605     -0.013887
     0.022204     -0.017018     -0.012043
     0.008608     -0.003460     -0.010730
     0.005307     -0.002273     -0.011544
    -0.006682      0.009732     -0.008925
     0.051542     -0.043770     -0.013564
     0.057719     -0.046151     -0.015397
     0.081778     -0.057944     -0.013985
     0.087600     -0.060516     -0.013480
    -0.034388      0.036616     -0.001728
     0.038083     -0.031796     -0.014096
     0.027420     -0.023459     -0.013120
    -0.002925      0.005537     -0.010103
    -0.029613      0.032469     -0.004328
     0.045803     -0.037145     -0.015732
     0.015309     -0.011602     -0.013298
     0.012527     -0.008111     -0.011819
    -0.014437      0.016807     -0.008559
     0.093801     -0.064624     -0.014025
    -0.030629      0.035793     -0.004675
     0.042668     -0.035560     -0.016431
     0.034027     -0.027463     -0.015152
    -0.006419      0.010948     -0.010264
     0.063075     -0.046837     -0.017204
    -0.024076      0.027607     -0.007162
     0.028067     -0.023766     -0.016064
    -0.000572      0.003451     -0.012002
     0.069575     -0.051489     -0.015349
    -0.022832      0.029617     -0.006898
    -0.029186      0.033729     -0.005808
     0.101563     -0.067014     -0.014844
     0.022336     -0.016679     -0.015333
    -0.019573      0.021911     -0.009355
    -0.026744      0.027999     -0.008627
     0.085938     -0.058757     -0.015260
     0.015756     -0.009688     -0.013375
    -0.010496      0.014923     -0.011147
     0.075795     -0.053682     -0.016530
    -0.025534      0.029989     -0.007909
    -0.032109      0.034603     -0.007437
    -0.034764      0.038288     -0.005797
     0.050660     -0.039565     -0.017825
     0.037751     -0.029937     -0.016685
     0.001866      0.000450     -0.015354
     0.055370     -0.043309     -0.017521
    -0.007439      0.010709     -0.011978
     0.069937     -0.050187     -0.016886
     0.095810     -0.062130     -0.015688
     0.018462     -0.014760     -0.016323
     0.014706     -0.010114     -0.014672
     0.000256      0.004031     -0.014036
    -0.004251      0.006704     -0.014329
    -0.017191      0.018401     -0.011830
     0.072734     -0.053126     -0.018098
    -0.023396      0.025935     -0.009777
     0.084385     -0.057507     -0.016417
     0.080010     -0.052761     -0.017491
    -0.030558      0.036225     -0.007379
    -0.039171      0.039977     -0.006951
     0.024954     -0.021424     -0.018549
     0.019889     -0.013305     -0.016769
     0.055408     -0.041419     -0.018296
     0.066373     -0.046407     -0.019365
     0.070803     -0.048648     -0.018879
     0.085470     -0.055680     -0.018126
     0.090646     -0.060691     -0.017387
    -0.031248      0.034915     -0.008207
     0.100313     -0.064425     -0.016548
     0.033588     -0.027237     -0.018057
     0.030698     -0.023720     -0.018768
     0.046922     -0.037295     -0.019186
     0.002847      0.001559     -0.015546
    -0.009724      0.014318     -0.012929
    -0.029749      0.035718     -0.008768
     0.105471     -0.066389     -0.017002
     0.022263     -0.016883     -0.018005
     0.047845     -0.038275     -0.020217
    -0.013572      0.015069     -0.014334
    -0.019754      0.022474     -0.011116
    -0.029923      0.032749     -0.010282
    -0.037675      0.040245     -0.008208
     0.007600     -0.003385     -0.016734
     0.060404     -0.043094     -0.019764
     0.079507     -0.050927     -0.018818
     0.097905     -0.061014     -0.017359
    -0.035899      0.038413     -0.009006
     0.042305     -0.033625     -0.021447
     0.027885     -0.022881     -0.019686
     0.017601     -0.014245     -0.019237
     0.053284     -0.038259     -0.020553
    -0.021552      0.022959     -0.013192
    -0.025312      0.026715     -0.012279
     0.090386     -0.057214     -0.018957
     0.107056     -0.064732     -0.017541
     0.013522     -0.009421     -0.017965
     0.007454     -0.003263     -0.018133
    -0.003377      0.005524     -0.017213
     0.057636     -0.041518     -0.020988
     0.072454     -0.048307     -0.020310
    -0.030873      0.035372     -0.010388
     0.112906     -0.068021     -0.018131
     0.061279     -0.041370     -0.021924
    -0.024939      0.026146     -0.014278
     0.099442     -0.061000     -0.018239
    -0.037303      0.040313     -0.010001
     0.036425     -0.028895     -0.021742
     0.020660     -0.015863     -0.020664
     0.013359     -0.008120     -0.020054
    -0.011595      0.015222     -0.015966
     0.070461     -0.044819     -0.021504
    -0.023913      0.027177     -0.015023
     0.085276     -0.052169     -0.019853
    -0.031651      0.036040     -0.011478
     0.108391     -0.062716     -0.018486
     0.046485     -0.035844     -0.022943
     0.031573     -0.025621     -0.022493
    -0.008745      0.011229     -0.017216
     0.075619     -0.046290     -0.021408
    -0.027797      0.030698     -0.013122
    -0.034234      0.038218     -0.013275
    -0.042301      0.042507     -0.011191
     0.016024     -0.011686     -0.021221
    -0.000480      0.002900     -0.018937
    -0.010986      0.012207     -0.018474
    -0.017881      0.019757     -0.016289
     0.090767     -0.054947     -0.021085
     0.094741     -0.056363     -0.019973
     0.016568     -0.013831     -0.022153
     0.053993     -0.039166     -0.022670
    -0.029016      0.033048     -0.014178
     0.108385     -0.060142     -0.019601
     0.113163     -0.064466     -0.019305
    -0.038003      0.041704     -0.011622
     0.024831     -0.021139     -0.023435
     0.006555     -0.004269     -0.021342
     0.003402      0.000020     -0.020828
     0.071223     -0.043062     -0.022825
     0.096390     -0.055057     -0.020830
     0.010604     -0.008826     -0.022519
    -0.005697      0.008159     -0.019681
    -0.021745      0.024600     -0.017211
     0.079734     -0.049992     -0.021632
    -0.031652      0.035602     -0.014922
    -0.038753      0.042477     -0.012729
     0.042827     -0.032970     -0.024855
     0.050893     -0.036913     -0.024170
    -0.001153      0.003148     -0.021121
     0.077672     -0.045558     -0.023168
    -0.039152      0.041067     -0.014001
     0.034545     -0.028256     -0.024660
    -0.009665      0.014414     -0.019308
     0.069880     -0.042016     -0.023771
    -0.015984      0.019166     -0.018980
     0.085621     -0.050772     -0.022113
    -0.031527      0.037320     -0.015154
     0.106930     -0.056021     -0.020481
     0.029565     -0.022974     -0.025066
     0.020336     -0.014298     -0.024161
     0.013409     -0.007594     -0.023339
     0.008205     -0.004827     -0.023292
     0.054143     -0.034881     -0.025223
     0.004516      0.000573     -0.022069
     0.057133     -0.037969     -0.024109
     0.098516     -0.051841     -0.021605
     0.035841     -0.027221     -0.025735
     0.023376     -0.019379     -0.024417
     0.048881     -0.033517     -0.025093
    -0.004840      0.006932     -0.021093
    -0.008286      0.011442     -0.020966
     0.074488     -0.039067     -0.024540
    -0.026363      0.030957     -0.017224
     0.092046     -0.049569     -0.023066
     0.110163     -0.056290     -0.021184
    -0.042284      0.044317     -0.013718
     0.063950     -0.036504     -0.025477
    -0.018501      0.021711     -0.019882