# vtk DataFile Version 2.0
3DChange1_M1
ASCII
DATASET UNSTRUCTURED_GRID
POINTS 9125 float
     2.673297      1.756227     10.434973
     2.721372      1.752717     10.469649
     2.730621      1.740861     10.485775
     2.760959      1.749665     10.486909
     2.654983      1.745668     10.461803
     2.665579      1.743431     10.509331
     2.584083      1.758065     10.537522
     2.647625      1.733623     10.545241
     2.713960      1.736206     10.525723
     2.608586      1.746976     10.510613
     2.637249      1.745010     10.536766
     2.744517      1.750168     10.517543
     2.767826      1.744886     10.551134
     2.727110      1.733899     10.545707
     2.671962      1.720080     10.560923
     2.694297      1.730733     10.567691
     2.580489      1.747439     10.560827
     2.781274      1.738956     10.578289
     2.647492      1.730395     10.587568
     2.717384      1.717691     10.591559
     2.609757      1.745298     10.588579
     2.655121      1.722435     10.604455
     2.768854      1.731939     10.596890
     2.566164      1.747444     10.622678
     2.741756      1.727496     10.588626
     2.617941      1.734884     10.608840
     2.696724      1.717558     10.624679
     2.761071      1.725717     10.623951
     2.799209      1.742252     10.622855
     2.612128      1.733765     10.624944
     2.819299      1.974392      9.179854
     2.659911      1.983461      9.203720
     2.753071      1.968887      9.181674
     2.818587      1.966197      9.209000
     2.723390      1.972069      9.215866
     2.683038      1.974651      9.215566
     2.719646      1.960516      9.233443
     2.771583      1.968469      9.248385
     2.647989      1.977139      9.252022
     2.848387      1.962488      9.233501
     2.865204      1.974683      9.231186
     2.692343      1.975097      9.250775
     2.668629      1.963551      9.253683
     2.786426      1.956047      9.262395
     2.703859      1.962681      9.282927
     2.606627      1.979873      9.272371
     2.762032      1.958528      9.286292
     2.825228      1.965065      9.278685
     2.619387      1.982191      9.292035
     2.842699      1.974351      9.263459
     2.679267      1.963776      9.279210
     2.629133      1.968034      9.300354
     2.699724      1.951881      9.296507
     2.844891      1.959063      9.291025
     2.736590      1.953058      9.313327
     2.756910      1.947645      9.297493
     2.603302      1.971939      9.327310
     2.895972      1.972043      9.315270
     2.640638      1.955978      9.315451
     2.804645      1.948616      9.297576
     2.726517      1.950629      9.340972
     2.849042      1.958543      9.332213
     2.594408      1.967278      9.360719
     2.730466      1.938381      9.352889
     2.837852      1.953634      9.351935
     2.643057      1.960675      9.359037
     2.890223      1.961187      9.342695
     2.909059      1.978175      9.340921
     2.675727      1.955140      9.379052
     2.700016      1.938507      9.387187
     2.737240      1.939781      9.375698
     2.772997      1.947544      9.368317
     2.590555      1.974104      9.389893
     2.636661      1.953316      9.385053
     2.832231      1.942915      9.352029
     2.653184      1.943303      9.377060
     2.891626      1.954881      9.381038
     2.901475      1.971332      9.372459
     2.650172      1.940723      9.406864
     2.616653      1.958598      9.401576
     2.859940      1.952799      9.403018
     2.569826      1.988815      9.414899
     2.675728      1.945237      9.406732
     2.749948      1.937762      9.410161
     2.829684      1.931782      9.405157
     2.870071      1.964064      9.416252
     2.716461      1.935417      9.423691
     2.761479      1.932831      9.428640
     2.600163      1.948035      9.432086
     2.631513      1.946856      9.427778
     2.846072      1.941690      9.410089
     2.912126      1.967412      9.414780
     2.674327      1.932334      9.428011
     2.583226      1.962574      9.460748
     2.738113      1.942358      9.447411
     2.884682      1.950216      9.432131
     2.642722      1.934039      9.453375
     2.798784      1.935482      9.457365
     2.538816      1.992358      9.471700
     2.671529      1.920853      9.455900
     2.701204      1.931323      9.460936
     2.766807      1.925605      9.454967
     2.612864      1.947837      9.469668
     2.868972      1.954160      9.461911
     2.559121      1.978493      9.453493
     2.637583      1.922542      9.483988
     2.838645      1.938898      9.474982
     2.865421      1.935560      9.482621
     2.917891      1.966459      9.459143
     2.702684      1.919423      9.481240
     2.820473      1.921949      9.485282
     2.595538      1.948804      9.503675
     2.534776      1.989592      9.497776
     2.608162      1.937987      9.529022
     2.743747      1.928136      9.496063
     2.566136      1.969011      9.497602
     2.901516      1.943080      9.506670
     2.950808      1.970527      9.481032
     2.743197      1.917253      9.508435
     2.803499      1.924328      9.516124
     2.661864      1.910529      9.528152
     2.668267      1.922227      9.523191
     2.835002      1.929554      9.506648
     2.717840      1.919166      9.537385
     2.626150      1.924999      9.544586
     2.555412      1.961476      9.510063
     2.572225      1.956505      9.535200
     2.934369      1.958482      9.514486
     2.517959      1.982815      9.554778
     2.572702      1.942393      9.567700
     2.804407      1.913572      9.534514
     2.871974      1.938155      9.525379
     2.548643      1.962771      9.566236
     2.959325      1.974104      9.516741
     2.629787      1.912696      9.559352
     2.712595      1.907251      9.551242
     2.783746      1.915004      9.568358
     2.847924      1.917251      9.547689
     2.898252      1.929193      9.548571
     2.671089      1.925816      9.578447
     2.596711      1.926122      9.565942
     2.922024      1.945297      9.554057
     2.530702      1.984575      9.565028
     2.957613      1.967409      9.560804
     2.884699      1.933777      9.576707
     2.612516      1.914566      9.611732
     2.650052      1.913106      9.587116
     2.778654      1.904101      9.576103
     2.832023      1.924491      9.581955
     2.566094      1.962373      9.594093
     2.497809      1.993767      9.589740
     2.974356      1.961598      9.571030
     2.741344      1.907312      9.623619
     2.591952      1.927955      9.609316
     2.560848      1.946694      9.602043
     2.524385      1.964843      9.625703
     2.660973      1.900946      9.606936
     2.698421      1.899062      9.592625
     2.725165      1.907906      9.600417
     2.824664      1.907276      9.588571
     2.844549      1.911676      9.601921
     2.889080      1.922497      9.605242
     2.983325      1.978336      9.606704
     2.603711      1.904132      9.651129
     2.914215      1.934995      9.600097
     2.493658      1.985590      9.641428
     2.601585      1.925415      9.631226
     2.763106      1.893850      9.616385
     2.554214      1.946600      9.643088
     2.883318      1.912357      9.634459
     2.938949      1.954839      9.607107
     2.787532      1.904195      9.639808
     3.012110      1.995939      9.638513
     2.634228      1.902330      9.653340
     2.666156      1.900834      9.669016
     2.695026      1.885212      9.661194
     2.824738      1.901375      9.660536
     2.572405      1.926486      9.642561
     2.522694      1.954968      9.651980
     2.998474      1.963840      9.659518
     2.723472      1.897214      9.656628
     2.867717      1.911672      9.655317
     2.535832      1.952118      9.675124
     2.962295      1.959969      9.627612
     2.638671      1.890906      9.663505
     2.762906      1.890699      9.662975
     2.846657      1.912118      9.663376
     2.910327      1.930512      9.653571
     2.953589      1.949523      9.658371
     2.472736      1.991326      9.684279
     2.746802      1.898893      9.689736
     2.818392      1.890079      9.672057
     2.892600      1.919809      9.668113
     2.553356      1.941103      9.689231
     2.935610      1.935249      9.673936
     2.496513      1.985507      9.689809
     2.831759      1.902945      9.691547
     2.973664      1.957139      9.691990
     3.006910      1.966783      9.696711
     2.686641      1.887127      9.700336
     2.606638      1.898990      9.704537
     2.814493      1.890066      9.708245
     2.559780      1.921456      9.719230
     2.513239      1.961343      9.715796
     2.638998      1.890265      9.713689
     2.715373      1.874795      9.728958
     2.586912      1.905266      9.701567
     2.850048      1.895619      9.700937
     2.889883      1.918052      9.715921
     2.908130      1.930241      9.711262
     2.494400      1.968774      9.709825
     2.945920      1.938942      9.683713
     2.466897      1.988249      9.734755
     2.758568      1.883802      9.704144
     2.781433      1.893834      9.717833
     2.580836      1.901938      9.745999
     2.532452      1.939306      9.745662
     2.935926      1.939573      9.714690
     2.593783      1.891924      9.759958
     2.618643      1.885549      9.738629
     2.681866      1.884736      9.730461
     2.725037      1.885428      9.690300
     2.781021      1.881789      9.734240
     2.561724      1.927373      9.758761
     2.894249      1.908355      9.737549
     2.960494      1.940242      9.745019
     3.002273      1.974343      9.726170
     2.646857      1.879908      9.760845
     2.756073      1.880460      9.751720
     2.868926      1.897325      9.755121
     2.919291      1.917984      9.726252
     2.492785      1.970909      9.752391
     2.987668      1.958060      9.727620
     2.725773      1.875288      9.768311
     2.824471      1.890372      9.765576
[...]
POINT_DATA 9125
VECTORS U float
    -0.009753      0.002775      0.008374
    -0.006480      0.000363      0.008446
    -0.005440     -0.000108      0.008516
    -0.003668     -0.001414      0.008476
    -0.010709      0.003040      0.008461
    -0.009953      0.001642      0.008467
    -0.015888      0.003207      0.008217
    -0.010868      0.001720      0.008509
    -0.006400     -0.000351      0.008525
    -0.013794      0.003328      0.008345
    -0.011933      0.001945      0.008417
    -0.004772     -0.001594      0.008455
    -0.002926     -0.003197      0.008481
    -0.005411     -0.001260      0.008538
    -0.008750      0.000804      0.008601
    -0.007552     -0.000455      0.008529
    -0.015808      0.003009      0.008264
    -0.001598     -0.004337      0.008479
    -0.010745      0.000900      0.008477
    -0.005444     -0.001578      0.008573
    -0.013759      0.001698      0.008320
    -0.009924      0.000465      0.008501
    -0.002263     -0.004075      0.008492
    -0.016679      0.002509      0.008238
    -0.004072     -0.002695      0.008526
    -0.012816      0.001298      0.008373
    -0.006794     -0.001516      0.008507
    -0.002514     -0.004281      0.008479
    -0.000116     -0.006262      0.008408
    -0.013138      0.001214      0.008356
    -0.001791      0.004025     -0.005738
    -0.009834      0.014751     -0.004652
    -0.005055      0.008462     -0.005387
    -0.001413      0.003705     -0.005369
    -0.006657      0.010370     -0.004831
    -0.008456      0.013032     -0.004573
    -0.006248      0.010326     -0.004481
    -0.004091      0.006829     -0.004710
    -0.010052      0.015259     -0.003869
     0.000385      0.001338     -0.005262
     0.000819      0.000456     -0.005447
    -0.008120      0.012329     -0.004195
    -0.008551      0.013619     -0.003891
    -0.002690      0.005457     -0.004538
    -0.007166      0.011034     -0.003786
    -0.011811      0.017630     -0.003320
    -0.004238      0.007047     -0.004115
    -0.001063      0.002699     -0.004669
    -0.011620      0.016665     -0.003216
    -0.000533      0.001696     -0.005030
    -0.008235      0.012671     -0.003663
    -0.010669      0.015688     -0.003088
    -0.006883      0.010965     -0.003506
     0.000285      0.001124     -0.004608
    -0.005447      0.008497     -0.003571
    -0.004031      0.007144     -0.003856
    -0.011920      0.016906     -0.002605
     0.002884     -0.002074     -0.004658
    -0.009707      0.014551     -0.002899
    -0.001442      0.003781     -0.004182
    -0.005887      0.008836     -0.003146
     0.000443      0.000575     -0.004165
    -0.012238      0.016913     -0.002123
    -0.005183      0.008308     -0.002932
     0.000002      0.001171     -0.003824
    -0.010068      0.013955     -0.002438
     0.002938     -0.001987     -0.004254
     0.003421     -0.002923     -0.004486
    -0.008535      0.011578     -0.002405
    -0.006744      0.009762     -0.002358
    -0.005082      0.007656     -0.002737
    -0.003425      0.005437     -0.003126
    -0.012963      0.016766     -0.001850
    -0.010223      0.013858     -0.002064
     0.000198      0.001423     -0.003699
    -0.008955      0.012846     -0.002178
     0.003202     -0.002316     -0.003800
     0.003142     -0.002682     -0.004064
    -0.009232      0.012545     -0.001836
    -0.011431      0.014846     -0.001799
     0.001139     -0.000590     -0.003406
    -0.014631      0.017739     -0.001571
    -0.008296      0.011035     -0.002049
    -0.004525      0.006340     -0.002466
     0.000346      0.001115     -0.003019
     0.001238     -0.001121     -0.003399
    -0.006129      0.008210     -0.002082
    -0.003750      0.005319     -0.002320
    -0.011847      0.015214     -0.001290
    -0.010554      0.013420     -0.001544
     0.000799      0.000121     -0.003157
     0.003879     -0.003521     -0.003636
    -0.007930      0.010682     -0.001721
    -0.013440      0.015899     -0.001004
    -0.005617      0.006617     -0.002053
     0.002763     -0.002179     -0.003187
    -0.009671      0.012240     -0.001256
    -0.001875      0.002696     -0.002294
    -0.016563      0.018601     -0.000841
    -0.007751      0.010372     -0.001323
    -0.006913      0.008589     -0.001568
    -0.003277      0.004627     -0.002030
    -0.011727      0.013881     -0.000997
     0.001436     -0.001385     -0.002826
    -0.014982      0.017591     -0.001040
    -0.009645      0.012036     -0.000820
     0.000204      0.000171     -0.002392
     0.001942     -0.001453     -0.002443
     0.004155     -0.004027     -0.003190
    -0.006456      0.008191     -0.001276
    -0.000155      0.001084     -0.002032
    -0.012798      0.014422     -0.000574
    -0.016940      0.018376     -0.000562
    -0.012073      0.013248     -0.000345
    -0.005012      0.005682     -0.001483
    -0.014801      0.016386     -0.000598
     0.003888     -0.003492     -0.002434
     0.006126     -0.005940     -0.003161
    -0.004654      0.005609     -0.001258
    -0.001445      0.001970     -0.001624
    -0.008374      0.010037     -0.000479
    -0.008572      0.009780     -0.000665
     0.000241      0.000171     -0.001966
    -0.006175      0.006852     -0.000814
    -0.010907      0.011891     -0.000227
    -0.015007      0.016789     -0.000347
    -0.014432      0.015385     -0.000198
     0.005418     -0.005250     -0.002647
    -0.018071      0.018377      0.000104
    -0.014117      0.014827      0.000214
    -0.001030      0.001793     -0.001345
     0.002056     -0.001970     -0.002057
    -0.016044      0.016335      0.000185
     0.006480     -0.006563     -0.002882
    -0.010321      0.011411     -0.000022
    -0.006001      0.007027     -0.000537
    -0.002544      0.002866     -0.000871
     0.001327     -0.000815     -0.001517
     0.004076     -0.003547     -0.001873
    -0.009113      0.009021     -0.000195
    -0.012354      0.013362      0.000168
     0.004986     -0.004798     -0.002075
    -0.017799      0.017462      0.000091
     0.006522     -0.006697     -0.002381
     0.002852     -0.002886     -0.001557
    -0.011630      0.011894      0.000576
    -0.009636      0.010002      0.000110
    -0.002430      0.003142     -0.000656
    -0.000133      0.000005     -0.001123
    -0.015660      0.014925      0.000320
    -0.019791      0.018903      0.000421
     0.007870     -0.007656     -0.002309
    -0.005119      0.004959      0.000022
    -0.013083      0.013183      0.000591
    -0.015182      0.015133      0.000578
    -0.017828      0.017052      0.000889
    -0.008708      0.009250      0.000347
    -0.006658      0.007452      0.000028
    -0.005793      0.005994     -0.000121
     0.000136      0.000363     -0.000857
     0.001095     -0.000892     -0.000900
     0.003506     -0.003330     -0.001203
     0.007742     -0.008055     -0.002114
    -0.011854      0.012103      0.001119
     0.004703     -0.004612     -0.001486
    -0.020216      0.018470      0.001002
    -0.012787      0.012414      0.000752
    -0.003184      0.003797     -0.000059
    -0.015873      0.015145      0.001023
     0.003439     -0.003242     -0.000807
     0.005583     -0.005928     -0.001716
    -0.002264      0.002139     -0.000098
     0.008789     -0.008940     -0.001984
    -0.010548      0.010249      0.000923
    -0.009003      0.008487      0.000923
    -0.006797      0.007119      0.000843
     0.000063     -0.000194     -0.000125
    -0.014122      0.014077      0.001074
    -0.017687      0.016910      0.001254
     0.009136     -0.008829     -0.001475
    -0.005816      0.005646      0.000538
     0.002359     -0.002583     -0.000535
    -0.017251      0.015920      0.001412
     0.006931     -0.007248     -0.001671
    -0.009920      0.009966      0.001101
    -0.003358      0.003447      0.000427
     0.000961     -0.001486     -0.000345
     0.004438     -0.004727     -0.000907
     0.006625     -0.006942     -0.001226
    -0.021830      0.018971      0.001440
    -0.004896      0.004145      0.000718
     0.000094      0.000100      0.000134
     0.003630     -0.003927     -0.000593
    -0.016106      0.014790      0.001529
     0.005893     -0.006118     -0.000860
    -0.020745      0.017731      0.001438
     0.000297     -0.000839      0.000104
     0.007619     -0.008079     -0.001047
     0.009504     -0.009255     -0.001139
    -0.007623      0.007235      0.001248
    -0.012001      0.011528      0.001663
    -0.000314      0.000046      0.000508
    -0.015174      0.014189      0.001951
    -0.019194      0.016700      0.001837
    -0.010332      0.009596      0.001598
    -0.005825      0.005582      0.001475
    -0.013061      0.012755      0.001734
     0.001739     -0.001968      0.000141
     0.003379     -0.004116     -0.000099
     0.004125     -0.004976     -0.000332
    -0.020227      0.017653      0.001791
     0.006420     -0.006677     -0.000841
    -0.022654      0.018557      0.001917
    -0.003616      0.003397      0.000916
    -0.002628      0.001870      0.000785
    -0.013597      0.012772      0.002233
    -0.017605      0.015409      0.002200
     0.005642     -0.006360     -0.000498
    -0.012768      0.011923      0.002358
    -0.011265      0.010630      0.002027
    -0.007988      0.007262      0.001580
    -0.005492      0.005347      0.000973
    -0.002256      0.001817      0.001057
    -0.015870      0.013650      0.002237
     0.004016     -0.004481      0.000189
     0.007243     -0.007737     -0.000303
     0.008881     -0.009237     -0.000903
    -0.009872      0.008940      0.002118
    -0.003915      0.003110      0.001386
     0.002743     -0.003368      0.000574
     0.005334     -0.005628     -0.000115
    -0.021030      0.017143      0.002131
     0.008477     -0.008774     -0.000720
    -0.005546      0.004677      0.001767
     0.000098     -0.000996      0.000998
    -0.016067      0.013868      0.002712
    -0.009932      0.009224      0.002456
    -0.011116      0.010518      0.002407
     0.004974     -0.005698      0.000530
    -0.017387      0.014786      0.002612
    -0.019249      0.015526      0.002659
    -0.007064      0.006183      0.002210
    -0.000522     -0.000193      0.001322
    -0.022340      0.017329      0.002457
     0.007220     -0.008008     -0.000260
    -0.023456      0.018206      0.002309
    -0.004340      0.003880      0.001949
    -0.003824      0.002750      0.001763
    -0.012541      0.010752      0.002592
    -0.008769      0.007649      0.002647
    -0.020627      0.016563      0.002856
     0.006115     -0.007014      0.000264
     0.007080     -0.007898      0.000216
     0.009203     -0.009490     -0.000224
    -0.012395      0.010824      0.002950
     0.001340     -0.002419      0.001314
    -0.015159      0.012977      0.002945
     0.003115     -0.003646      0.001050
     0.004684     -0.005156      0.000948
     0.008504     -0.009229      0.000260
    -0.006862      0.005700      0.002574
    -0.000886     -0.000423      0.001823
    -0.016611      0.013810      0.003322
     0.004976     -0.006025      0.001004
    -0.018738      0.014986      0.003209
     0.007096     -0.008005      0.000715
    -0.022643      0.016927      0.002905
    -0.009945      0.008912      0.003132
    -0.007301      0.006683      0.002770
    -0.011319      0.009921      0.003095
    -0.004373      0.003180      0.002360
    -0.000996      0.000038      0.002075
    -0.013824      0.011964      0.003227
     0.001202     -0.001913      0.001699
    -0.024320      0.017847      0.002969
    -0.001886      0.000957      0.002378
    -0.022123      0.016864      0.003275
    -0.026347      0.018817      0.003282
    -0.012426      0.010187      0.003323
     0.001745     -0.002782      0.001779
    -0.020384      0.015013      0.003491
     0.007332     -0.007905      0.001136
     0.008231     -0.009291      0.000584
    -0.023237      0.016607      0.003293
    -0.004496      0.003012      0.002779
    -0.001350      0.000078      0.002530
     0.003707     -0.004584      0.001793
    -0.017889      0.014414      0.003688
    -0.021116      0.015502      0.003229
     0.008780     -0.009730      0.000908
    -0.024340      0.017595      0.003489
    -0.012576      0.011032      0.003907
    -0.009634      0.007930      0.003552
    -0.004805      0.003759      0.003021
     0.004732     -0.005749      0.001922
     0.005400     -0.006808      0.001614
    -0.013943      0.011464      0.004349
     0.002856     -0.003778      0.002133
    -0.018719      0.014887      0.004150
    -0.021715      0.015602      0.003897
    -0.006230      0.004775      0.003379
    -0.002415      0.000971      0.003011
    -0.001489      0.000638      0.003239
     0.001875     -0.002731      0.002504
    -0.014462      0.012281      0.003806
    -0.016195      0.012950      0.004320
    -0.022946      0.016259      0.003924
    -0.024580      0.016980      0.003782
     0.009649     -0.010274      0.000485
    -0.010686      0.008922      0.003955
    -0.007694      0.006582      0.003681
     0.000821     -0.001554      0.002835
     0.008309     -0.009111      0.001214
    -0.012852      0.010422      0.004414
    -0.004296      0.003255      0.003731
    -0.003515      0.002276      0.003316
     0.004051     -0.004716      0.002402
    -0.026320      0.018133      0.003935
     0.008594     -0.010043      0.001312
    -0.011972      0.009978      0.004610
    -0.009548      0.007706      0.004252
     0.001801     -0.003072      0.002880
    -0.017698      0.013142      0.004827
     0.006755     -0.007746      0.002010
    -0.007875      0.006668      0.004507
     0.000160     -0.000968      0.003368
    -0.019522      0.014448      0.004307
     0.006406     -0.008310      0.001936
     0.008189     -0.009464      0.001630
    -0.028498      0.018804      0.004165
    -0.006267      0.004680      0.004302
     0.005492     -0.006148      0.002625
     0.007504     -0.007856      0.002421
    -0.024113      0.016487      0.004282
    -0.004421      0.002718      0.003753
     0.002945     -0.004187      0.003128
    -0.021267      0.015063      0.004638
     0.007165     -0.008415      0.002219
     0.009010     -0.009709      0.002087
     0.009754     -0.010743      0.001627
    -0.014215      0.011102      0.005002
    -0.010593      0.008400      0.004682
    -0.000524     -0.000126      0.004308
    -0.015536      0.012152      0.004916
     0.002087     -0.003005      0.003361
    -0.019624      0.014082      0.004738
    -0.026884      0.017433      0.004402
    -0.005180      0.004142      0.004580
    -0.004126      0.002838      0.004117
    -0.000072     -0.001131      0.003939
     0.001193     -0.001881      0.004021
     0.004824     -0.005163      0.003320
    -0.020409      0.014907      0.005078
     0.006565     -0.007277      0.002743
    -0.023678      0.016136      0.004606
    -0.022450      0.014804      0.004908
     0.008574     -0.010164      0.002070
     0.010991     -0.011217      0.001950
    -0.007002      0.006011      0.005205
    -0.005581      0.003733      0.004705
    -0.015547      0.011622      0.005134
    -0.018624      0.013021      0.005434
    -0.019867      0.013650      0.005297
    -0.023982      0.015623      0.005086
    -0.025434      0.017029      0.004879
     0.008768     -0.009797      0.002303
    -0.028147      0.018077      0.004643
    -0.009425      0.007643      0.005067
    -0.008614      0.006656      0.005266
    -0.013166      0.010465      0.005383
    -0.000799     -0.000438      0.004362
     0.002728     -0.004018      0.003628
     0.008347     -0.010022      0.002460
    -0.029594      0.018628      0.004771
    -0.006247      0.004737      0.005052
    -0.013425      0.010740      0.005673
     0.003808     -0.004228      0.004022
     0.005543     -0.006306      0.003119
     0.008396     -0.009189      0.002885
     0.010571     -0.011292      0.002303
    -0.002133      0.000950      0.004695
    -0.016949      0.012092      0.005546
    -0.022309      0.014290      0.005280
    -0.027471      0.017120      0.004871
     0.010073     -0.010778      0.002527
    -0.011870      0.009435      0.006018
    -0.007824      0.006420      0.005524
    -0.004939      0.003997      0.005398
    -0.014951      0.010735      0.005767
     0.006047     -0.006442      0.003702
     0.007102     -0.007496      0.003445
    -0.025362      0.016054      0.005319
    -0.030039      0.018163      0.004922
    -0.003794      0.002643      0.005041
    -0.002092      0.000916      0.005088
     0.000948     -0.001550      0.004830
    -0.016172      0.011650      0.005889
    -0.020330      0.013555      0.005699
     0.008663     -0.009925      0.002915
    -0.031681      0.019086      0.005087
    -0.017194      0.011608      0.006152
     0.006998     -0.007336      0.004006
    -0.027903      0.017116      0.005118
     0.010467     -0.011311      0.002806
    -0.010221      0.008108      0.006101
    -0.005797      0.004451      0.005798
    -0.003748      0.002279      0.005627
     0.003253     -0.004271      0.004480
    -0.019771      0.012576      0.006034
     0.006710     -0.007626      0.004215
    -0.023928      0.014638      0.005571
     0.008881     -0.010113      0.003221
    -0.030414      0.017598      0.005187
    -0.013043      0.010058      0.006438
    -0.008859      0.007189      0.006311
     0.002454     -0.003151      0.004831
    -0.021218      0.012989      0.006007
     0.007800     -0.008614      0.003682
     0.009606     -0.010724      0.003725
     0.011869     -0.011927      0.003140
    -0.004496      0.003279      0.005954
     0.000135     -0.000814      0.005313
     0.003083     -0.003425      0.005184
     0.005017     -0.005544      0.004571
    -0.025468      0.015418      0.005916
    -0.026584      0.015815      0.005604
    -0.004649      0.003881      0.006216
    -0.015150      0.010990      0.006361
     0.008142     -0.009273      0.003978
    -0.030412      0.016875      0.005500
    -0.031753      0.018089      0.005417
     0.010663     -0.011702      0.003261
    -0.006967      0.005932      0.006576
    -0.001839      0.001198      0.005988
    -0.000955     -0.000005      0.005844
    -0.019985      0.012083      0.006405
    -0.027046      0.015449      0.005845
    -0.002976      0.002477      0.006319
     0.001599     -0.002289      0.005522
     0.006101     -0.006902      0.004829
    -0.022373      0.014027      0.006070
     0.008881     -0.009990      0.004187
     0.010874     -0.011919      0.003572
    -0.012017      0.009251      0.006974
    -0.014280      0.010357      0.006782
     0.000323     -0.000883      0.005926
    -0.021794      0.012783      0.006501
     0.010986     -0.011523      0.003929
    -0.009693      0.007928      0.006920
     0.002712     -0.004044      0.005418
    -0.019608      0.011789      0.006670
     0.004485     -0.005378      0.005326
    -0.024025      0.014246      0.006205
     0.008846     -0.010472      0.004252
    -0.030004      0.015719      0.005747
    -0.008296      0.006446      0.007033
    -0.005706      0.004012      0.006779
    -0.003762      0.002131      0.006549
    -0.002302      0.001354      0.006536
    -0.015192      0.009787      0.007077
    -0.001267     -0.000161      0.006192
    -0.016031      0.010654      0.006765
    -0.027643      0.014546      0.006062
    -0.010057      0.007638      0.007221
    -0.006559      0.005438      0.006851
    -0.013716      0.009405      0.007041
     0.001358     -0.001945      0.005919
     0.002325     -0.003211      0.005883
    -0.020901      0.010962      0.006886
     0.007397     -0.008686      0.004833
    -0.025827      0.013909      0.006472
    -0.030911      0.015794      0.005944
     0.011864     -0.012435      0.003849
    -0.017944      0.010243      0.007149
     0.005191     -0.006092      0.005579