# vtk DataFile Version 2.0
3DChange2_M1
ASCII
DATASET UNSTRUCTURED_GRID
POINTS 9125 float
     2.675378      1.755635     10.433185
     2.722755      1.752640     10.467847
     2.731782      1.740884     10.483957
     2.761741      1.749966     10.485100
     2.657269      1.745019     10.459997
     2.667703      1.743081     10.507524
     2.587474      1.757380     10.535769
     2.649944      1.733256     10.543425
     2.715326      1.736281     10.523903
     2.611530      1.746266     10.508832
     2.639796      1.744595     10.534969
     2.745535      1.750508     10.515738
     2.768451      1.745568     10.549324
     2.728264      1.734168     10.543884
     2.673830      1.719909     10.559087
     2.695909      1.730830     10.565871
     2.583863      1.746797     10.559063
     2.781615      1.739881     10.576479
     2.649785      1.730202     10.585759
     2.718546      1.718028     10.589729
     2.612693      1.744936     10.586803
     2.657239      1.722336     10.602640
     2.769337      1.732809     10.595078
     2.569724      1.746909     10.620920
     2.742625      1.728071     10.586806
     2.620677      1.734607     10.607053
     2.698174      1.717881     10.622864
     2.761608      1.726631     10.622141
     2.799234      1.743588     10.621061
     2.614932      1.733506     10.623160
     2.819681      1.973533      9.181079
     2.662010      1.980313      9.204713
     2.754150      1.967081      9.182824
     2.818889      1.965406      9.210146
     2.724810      1.969856      9.216897
     2.684843      1.971869      9.216542
     2.720979      1.958312      9.234400
     2.772456      1.967011      9.249391
     2.650134      1.973882      9.252848
     2.848305      1.962203      9.234624
     2.865029      1.974585      9.232349
     2.694076      1.972466      9.251670
     2.670454      1.960645      9.254513
     2.787000      1.954882      9.263364
     2.705388      1.960326      9.283735
     2.609148      1.976110      9.273080
     2.762936      1.957024      9.287171
     2.825455      1.964489      9.279682
     2.621867      1.978634      9.292722
     2.842813      1.973989      9.264533
     2.681025      1.961071      9.279992
     2.631410      1.964686      9.301014
     2.701193      1.949541      9.297256
     2.844830      1.958823      9.292008
     2.737752      1.951244      9.314089
     2.757771      1.946120      9.298316
     2.605846      1.968331      9.327866
     2.895357      1.972486      9.316264
     2.642710      1.952872      9.316070
     2.804953      1.947809      9.298469
     2.727774      1.948743      9.341643
     2.848947      1.958421      9.333101
     2.597020      1.963669      9.361172
     2.731572      1.936608      9.353515
     2.837852      1.953384      9.352751
     2.645206      1.957697      9.359558
     2.889596      1.961611      9.343603
     2.908329      1.978799      9.341878
     2.677549      1.952669      9.379566
     2.701455      1.936424      9.387690
     2.738325      1.938147      9.376282
     2.773728      1.946383      9.368984
     2.593322      1.970525      9.390287
     2.638843      1.950358      9.385493
     2.832189      1.942611      9.352818
     2.655095      1.940562      9.377525
     2.890943      1.955375      9.381849
     2.900805      1.971904      9.373326
     2.652142      1.938045      9.407256
     2.619093      1.955430      9.401960
     2.859697      1.952925      9.403745
     2.572949      1.985029      9.415235
     2.677499      1.942882      9.407169
     2.750914      1.936409      9.410688
     2.829610      1.931544      9.405802
     2.869807      1.964303      9.416977
     2.717769      1.933664      9.424136
     2.762279      1.931696      9.429136
     2.602691      1.944788      9.432361
     2.633766      1.943992      9.428107
     2.845902      1.941664      9.410763
     2.911298      1.968164      9.415556
     2.676019      1.930054      9.428378
     2.586094      1.959181      9.460962
     2.739312      1.940945      9.447849
     2.884093      1.950681      9.432811
     2.644786      1.931426      9.453644
     2.799184      1.934906      9.457854
     2.542351      1.988388      9.471880
     2.673184      1.918640      9.456183
     2.702679      1.929489      9.461271
     2.767506      1.924618      9.455401
     2.615367      1.944875      9.469881
     2.868666      1.954456      9.462514
     2.562319      1.974738      9.453714
     2.639642      1.919973      9.484163
     2.838602      1.938862      9.475492
     2.865006      1.935870      9.483143
     2.917005      1.967318      9.459824
     2.704062      1.917674      9.481512
     2.820506      1.921717      9.485716
     2.598270      1.945726      9.503798
     2.538391      1.985670      9.497896
     2.610739      1.935160      9.529095
     2.744816      1.926923      9.496379
     2.569295      1.965513      9.497730
     2.900687      1.943826      9.507190
     2.949501      1.971795      9.481706
     2.744190      1.916056      9.508703
     2.803807      1.923908      9.516470
     2.663652      1.908387      9.528254
     2.670097      1.920140      9.523333
     2.834950      1.929517      9.507068
     2.719158      1.917703      9.537559
     2.628478      1.922460      9.544634
     2.558615      1.957893      9.510137
     2.575306      1.953222      9.535242
     2.933213      1.959603      9.515051
     2.521816      1.978893      9.554756
     2.575715      1.939228      9.567654
     2.804627      1.913189      9.534801
     2.871535      1.938576      9.525818
     2.552067      1.959284      9.566196
     2.957942      1.975505      9.517356
     2.631990      1.910260      9.559357
     2.713876      1.905751      9.551357
     2.784289      1.914393      9.568544
     2.847641      1.917425      9.548013
     2.897382      1.929950      9.548971
     2.673034      1.923891      9.578488
     2.599348      1.923270      9.565906
     2.920960      1.946321      9.554499
     2.534501      1.980848      9.565008
     2.956221      1.968838      9.561312
     2.884090      1.934393      9.577040
     2.614999      1.912027      9.611609
     2.652109      1.910972      9.587092
     2.779173      1.903430      9.576243
     2.832051      1.924490      9.582194
     2.569436      1.959188      9.594024
     2.502033      1.989732      9.589650
     2.972676      1.963232      9.571523
     2.742436      1.906254      9.623615
     2.594745      1.925142      9.609190
     2.564089      1.943464      9.601920
     2.528190      1.961204      9.625513
     2.662832      1.898972      9.606862
     2.699842      1.897471      9.592619
     2.726401      1.906627      9.600443
     2.824635      1.907199      9.588754
     2.844316      1.911866      9.602113
     2.888332      1.923208      9.605499
     2.981672      1.980055      9.607156
     2.606241      1.901549      9.650891
     2.913211      1.935979      9.600414
     2.497972      1.981648      9.641214
     2.604314      1.922765      9.631066
     2.763785      1.893040      9.616398
     2.557602      1.943368      9.642869
     2.882584      1.913049      9.634631
     2.937758      1.956104      9.607474
     2.788015      1.903739      9.639829
     3.010234      1.997847      9.638937
     2.636479      1.900143      9.653143
     2.668077      1.899022      9.668819
     2.696477      1.883692      9.661014
     2.824724      1.901416      9.660562
     2.575419      1.923482      9.642332
     2.526469      1.951359      9.651713
     2.996524      1.965724      9.659833
     2.724713      1.896009      9.656513
     2.867213      1.912223      9.655432
     2.539514      1.948720      9.674823
     2.960816      1.961516      9.627969
     2.640788      1.888779      9.663270
     2.763623      1.889963      9.662884
     2.846452      1.912435      9.663449
     2.909379      1.931521      9.653765
     2.952175      1.951004      9.658632
     2.477395      1.987277      9.683972
     2.747847      1.898009      9.689583
     2.818373      1.890058      9.672029
     2.891825      1.920647      9.668239
     2.556793      1.937946      9.688905
     2.934352      1.936555      9.674119
     2.500940      1.981723      9.689502
     2.831696      1.903124      9.691525
     2.972038      1.958863      9.692213
     3.004882      1.968758      9.696954
     2.688268      1.885583      9.700070
     2.609200      1.896529      9.704182
     2.814561      1.890056      9.708136
     2.563018      1.918428      9.718814
     2.517336      1.957779      9.715404
     2.641203      1.888217      9.713348
     2.716617      1.873604      9.728644
     2.589699      1.902544      9.701197
     2.849677      1.896039      9.700907
     2.889162      1.918930      9.715942
     2.907250      1.931303      9.711333
     2.498717      1.965006      9.709443
     2.944550      1.940368      9.683892
     2.471732      1.984288      9.734346
     2.759340      1.883077      9.703948
     2.781994      1.893435      9.717666
     2.583738      1.899212      9.745522
     2.536209      1.936018      9.745192
     2.934721      1.940931      9.714796
     2.596508      1.889379      9.759454
     2.621047      1.883280      9.738197
     2.683571      1.883186      9.730123
     2.726210      1.884287      9.690093
     2.781502      1.881401      9.734014
     2.565111      1.924460      9.758283
     2.893392      1.909312      9.737509
     2.958948      1.941893      9.745084
     3.000378      1.976314      9.726362
     2.648964      1.878000      9.760393
     2.756908      1.879796      9.751424
     2.868341      1.898044      9.754998
     2.918153      1.919185      9.726276
     2.497273      1.967250      9.751936
     2.985859      1.959932      9.727774
     2.726957      1.874290      9.767934
     2.824450      1.890584      9.765363
[...]
POINT_DATA 9125
VECTORS U float
    -0.007672      0.002183      0.006587
    -0.005097      0.000285      0.006643
    -0.004279     -0.000085      0.006699
    -0.002885     -0.001112      0.006667
    -0.008423      0.002391      0.006655
    -0.007828      0.001292      0.006660
    -0.012497      0.002523      0.006463
    -0.008549      0.001353      0.006693
    -0.005034     -0.000276      0.006706
    -0.010850      0.002618      0.006564
    -0.009386      0.001530      0.006620
    -0.003753     -0.001254      0.006650
    -0.002302     -0.002515      0.006671
    -0.004256     -0.000991      0.006716
    -0.006883      0.000632      0.006766
    -0.005940     -0.000358      0.006709
    -0.012434      0.002367      0.006500
    -0.001257     -0.003411      0.006669
    -0.008452      0.000708      0.006668
    -0.004282     -0.001241      0.006743
    -0.010823      0.001336      0.006544
    -0.007806      0.000366      0.006687
    -0.001780     -0.003205      0.006679
    -0.013119      0.001973      0.006480
    -0.003203     -0.002120      0.006706
    -0.010081      0.001021      0.006586
    -0.005344     -0.001192      0.006691
    -0.001977     -0.003368      0.006669
    -0.000091     -0.004926      0.006613
    -0.010334      0.000955      0.006572
    -0.001408      0.003166     -0.004514
    -0.007735      0.011603     -0.003659
    -0.003976      0.006656     -0.004237
    -0.001112      0.002915     -0.004223
    -0.005236      0.008157     -0.003800
    -0.006651      0.010251     -0.003597
    -0.004915      0.008122     -0.003525
    -0.003218      0.005371     -0.003705
    -0.007907      0.012002     -0.003043
     0.000303      0.001052     -0.004139
     0.000644      0.000359     -0.004284
    -0.006387      0.009698     -0.003300
    -0.006726      0.010712     -0.003060
    -0.002116      0.004292     -0.003569
    -0.005636      0.008679     -0.002978
    -0.009290      0.013868     -0.002611
    -0.003333      0.005543     -0.003237
    -0.000836      0.002123     -0.003673
    -0.009140      0.013109     -0.002530
    -0.000420      0.001334     -0.003956
    -0.006477      0.009967     -0.002881
    -0.008392      0.012340     -0.002429
    -0.005414      0.008625     -0.002758
     0.000224      0.000884     -0.003624
    -0.004284      0.006684     -0.002809
    -0.003171      0.005619     -0.003033
    -0.009376      0.013297     -0.002049
     0.002268     -0.001631     -0.003664
    -0.007635      0.011445     -0.002281
    -0.001134      0.002974     -0.003289
    -0.004631      0.006950     -0.002474
     0.000348      0.000452     -0.003276
    -0.009626      0.013303     -0.001670
    -0.004077      0.006535     -0.002306
     0.000002      0.000921     -0.003008
    -0.007919      0.010977     -0.001918
     0.002311     -0.001563     -0.003346
     0.002691     -0.002299     -0.003528
    -0.006713      0.009107     -0.001891
    -0.005305      0.007678     -0.001855
    -0.003997      0.006022     -0.002153
    -0.002694      0.004276     -0.002459
    -0.010196      0.013187     -0.001455
    -0.008041      0.010900     -0.001623
     0.000156      0.001120     -0.002909
    -0.007044      0.010104     -0.001714
     0.002519     -0.001822     -0.002989
     0.002471     -0.002109     -0.003197
    -0.007262      0.009868     -0.001444
    -0.008992      0.011677     -0.001415
     0.000896     -0.000464     -0.002679
    -0.011509      0.013953     -0.001236
    -0.006525      0.008680     -0.001612
    -0.003559      0.004986     -0.001940
     0.000272      0.000877     -0.002375
     0.000973     -0.000882     -0.002673
    -0.004821      0.006458     -0.001637
    -0.002950      0.004184     -0.001825
    -0.009318      0.011967     -0.001015
    -0.008301      0.010556     -0.001215
     0.000629      0.000096     -0.002483
     0.003051     -0.002770     -0.002860
    -0.006237      0.008402     -0.001354
    -0.010571      0.012505     -0.000790
    -0.004418      0.005205     -0.001615
     0.002173     -0.001714     -0.002507
    -0.007607      0.009628     -0.000988
    -0.001475      0.002120     -0.001804
    -0.013028      0.014631     -0.000661
    -0.006096      0.008159     -0.001041
    -0.005437      0.006756     -0.001233
    -0.002578      0.003640     -0.001597
    -0.009224      0.010918     -0.000784
     0.001129     -0.001089     -0.002223
    -0.011784      0.013836     -0.000818
    -0.007586      0.009467     -0.000645
     0.000160      0.000135     -0.001881
     0.001528     -0.001143     -0.001921
     0.003268     -0.003167     -0.002509
    -0.005078      0.006443     -0.001004
    -0.000122      0.000852     -0.001599
    -0.010067      0.011344     -0.000451
    -0.013324      0.014454     -0.000442
    -0.009496      0.010420     -0.000271
    -0.003943      0.004470     -0.001166
    -0.011642      0.012888     -0.000470
     0.003058     -0.002747     -0.001915
     0.004819     -0.004672     -0.002486
    -0.003661      0.004412     -0.000989
    -0.001136      0.001549     -0.001277
    -0.006587      0.007894     -0.000377
    -0.006742      0.007693     -0.000523
     0.000189      0.000134     -0.001547
    -0.004857      0.005390     -0.000640
    -0.008579      0.009353     -0.000179
    -0.011804      0.013206     -0.000273
    -0.011352      0.012102     -0.000155
     0.004261     -0.004129     -0.002082
    -0.014214      0.014455      0.000082
    -0.011104      0.011663      0.000168
    -0.000810      0.001410     -0.001058
     0.001617     -0.001550     -0.001618
    -0.012620      0.012848      0.000145
     0.005097     -0.005162     -0.002267
    -0.008118      0.008976     -0.000017
    -0.004720      0.005527     -0.000422
    -0.002001      0.002254     -0.000685
     0.001044     -0.000641     -0.001194
     0.003206     -0.002790     -0.001474
    -0.007168      0.007095     -0.000153
    -0.009717      0.010510      0.000132
     0.003922     -0.003774     -0.001633
    -0.014000      0.013735      0.000071
     0.005130     -0.005268     -0.001873
     0.002243     -0.002270     -0.001225
    -0.009148      0.009356      0.000453
    -0.007580      0.007867      0.000087
    -0.001911      0.002471     -0.000516
    -0.000105      0.000004     -0.000883
    -0.012318      0.011740      0.000252
    -0.015567      0.014868      0.000331
     0.006190     -0.006022     -0.001816
    -0.004026      0.003901      0.000017
    -0.010291      0.010369      0.000465
    -0.011942      0.011903      0.000455
    -0.014023      0.013412      0.000699
    -0.006850      0.007276      0.000273
    -0.005237      0.005861      0.000022
    -0.004557      0.004715     -0.000095
     0.000107      0.000286     -0.000674
     0.000861     -0.000702     -0.000708
     0.002758     -0.002619     -0.000946
     0.006089     -0.006336     -0.001662
    -0.009324      0.009520      0.000880
     0.003700     -0.003628     -0.001169
    -0.015901      0.014528      0.000788
    -0.010058      0.009765      0.000592
    -0.002504      0.002986     -0.000047
    -0.012485      0.011913      0.000804
     0.002705     -0.002550     -0.000635
     0.004391     -0.004663     -0.001350
    -0.001781      0.001682     -0.000077
     0.006913     -0.007032     -0.001560
    -0.008297      0.008061      0.000726
    -0.007082      0.006676      0.000726
    -0.005347      0.005600      0.000663
     0.000050     -0.000153     -0.000098
    -0.011108      0.011073      0.000844
    -0.013912      0.013301      0.000987
     0.007186     -0.006945     -0.001160
    -0.004575      0.004441      0.000423
     0.001855     -0.002031     -0.000421
    -0.013569      0.012522      0.001111
     0.005452     -0.005701     -0.001314
    -0.007803      0.007839      0.000866
    -0.002641      0.002711      0.000336
     0.000756     -0.001169     -0.000271
     0.003490     -0.003718     -0.000713
     0.005211     -0.005460     -0.000965
    -0.017171      0.014922      0.001132
    -0.003851      0.003260      0.000565
     0.000074      0.000079      0.000105
     0.002855     -0.003089     -0.000467
    -0.012668      0.011633      0.001203
     0.004635     -0.004812     -0.000677
    -0.016317      0.013946      0.001131
     0.000234     -0.000660      0.000082
     0.005993     -0.006354     -0.000823
     0.007476     -0.007280     -0.000896
    -0.005996      0.005691      0.000981
    -0.009440      0.009068      0.001308
    -0.000247      0.000036      0.000400
    -0.011936      0.011160      0.001535
    -0.015097      0.013136      0.001445
    -0.008127      0.007548      0.001257
    -0.004582      0.004391      0.001160
    -0.010273      0.010033      0.001364
     0.001367     -0.001548      0.000111
     0.002658     -0.003238     -0.000078
     0.003245     -0.003914     -0.000261
    -0.015910      0.013885      0.001409
     0.005049     -0.005252     -0.000662
    -0.017819      0.014596      0.001508
    -0.002844      0.002672      0.000721
    -0.002067      0.001471      0.000617
    -0.010695      0.010046      0.001756
    -0.013847      0.012120      0.001731
     0.004438     -0.005003     -0.000392
    -0.010043      0.009378      0.001855
    -0.008861      0.008362      0.001594
    -0.006283      0.005712      0.001242
    -0.004320      0.004206      0.000765
    -0.001774      0.001429      0.000831
    -0.012483      0.010737      0.001760
     0.003159     -0.003525      0.000149
     0.005697     -0.006086     -0.000238
     0.006985     -0.007265     -0.000710
    -0.007765      0.007032      0.001666
    -0.003079      0.002446      0.001090
     0.002158     -0.002649      0.000451
     0.004196     -0.004427     -0.000090
    -0.016542      0.013484      0.001676
     0.006668     -0.006901     -0.000566
    -0.004362      0.003679      0.001390
     0.000077     -0.000783      0.000785
    -0.012638      0.010908      0.002133
    -0.007812      0.007256      0.001932
    -0.008744      0.008273      0.001893
     0.003913     -0.004482      0.000417
    -0.013676      0.011630      0.002055
    -0.015141      0.012212      0.002091
    -0.005557      0.004863      0.001739
    -0.000411     -0.000152      0.001040
    -0.017572      0.013630      0.001933
     0.005679     -0.006298     -0.000204
    -0.018450      0.014321      0.001816
    -0.003414      0.003052      0.001533
    -0.003008      0.002163      0.001387
    -0.009865      0.008457      0.002039
    -0.006897      0.006016      0.002082
    -0.016224      0.013028      0.002246
     0.004810     -0.005517      0.000207
     0.005569     -0.006213      0.000170
     0.007239     -0.007464     -0.000176
    -0.009749      0.008514      0.002321
     0.001054     -0.001902      0.001033
    -0.011924      0.010207      0.002316
     0.002450     -0.002868      0.000826
     0.003685     -0.004056      0.000745
     0.006689     -0.007259      0.000204
    -0.005397      0.004484      0.002024
    -0.000697     -0.000333      0.001434
    -0.013066      0.010863      0.002613
     0.003914     -0.004739      0.000790
    -0.014739      0.011787      0.002524
     0.005581     -0.006296      0.000563
    -0.017810      0.013315      0.002285
    -0.007822      0.007010      0.002464
    -0.005743      0.005256      0.002179
    -0.008903      0.007804      0.002434
    -0.003439      0.002502      0.001857
    -0.000784      0.000030      0.001632
    -0.010874      0.009410      0.002539
     0.000945     -0.001504      0.001336
    -0.019129      0.014038      0.002336
    -0.001483      0.000753      0.001870
    -0.017401      0.013265      0.002576
    -0.020724      0.014801      0.002581
    -0.009774      0.008013      0.002614
     0.001373     -0.002188      0.001399
    -0.016034      0.011808      0.002746
     0.005767     -0.006218      0.000893
     0.006474     -0.007308      0.000459
    -0.018278      0.013062      0.002590
    -0.003536      0.002369      0.002186
    -0.001062      0.000061      0.001990
     0.002916     -0.003606      0.001410
    -0.014071      0.011337      0.002901
    -0.016609      0.012193      0.002540
     0.006906     -0.007653      0.000714
    -0.019145      0.013840      0.002744
    -0.009892      0.008678      0.003073
    -0.007578      0.006237      0.002794
    -0.003779      0.002957      0.002376
     0.003722     -0.004522      0.001512
     0.004247     -0.005355      0.001270
    -0.010967      0.009017      0.003421
     0.002247     -0.002972      0.001678
    -0.014723      0.011710      0.003264
    -0.017081      0.012272      0.003065
    -0.004901      0.003756      0.002658
    -0.001900      0.000764      0.002368
    -0.001171      0.000502      0.002548
     0.001475     -0.002148      0.001970
    -0.011376      0.009660      0.002994
    -0.012739      0.010186      0.003398
    -0.018049      0.012789      0.003087
    -0.019334      0.013356      0.002975
     0.007590     -0.008081      0.000381
    -0.008405      0.007018      0.003111
    -0.006052      0.005177      0.002896
     0.000646     -0.001222      0.002230
     0.006536     -0.007166      0.000955
    -0.010109      0.008198      0.003472
    -0.003379      0.002561      0.002935
    -0.002765      0.001790      0.002608
     0.003186     -0.003709      0.001889
    -0.020702      0.014263      0.003095
     0.006760     -0.007900      0.001032
    -0.009417      0.007848      0.003626
    -0.007510      0.006061      0.003344
     0.001417     -0.002416      0.002265
    -0.013921      0.010337      0.003797
     0.005314     -0.006093      0.001581
    -0.006195      0.005245      0.003545
     0.000126     -0.000762      0.002649
    -0.015356      0.011364      0.003388
     0.005039     -0.006537      0.001522
     0.006441     -0.007444      0.001282
    -0.022416      0.014790      0.003276
    -0.004930      0.003681      0.003384
     0.004320     -0.004836      0.002065
     0.005902     -0.006180      0.001904
    -0.018967      0.012968      0.003368
    -0.003477      0.002138      0.002952
     0.002317     -0.003294      0.002460
    -0.016728      0.011848      0.003648
     0.005635     -0.006619      0.001746
     0.007087     -0.007637      0.001641
     0.007672     -0.008450      0.001279
    -0.011181      0.008732      0.003934
    -0.008332      0.006607      0.003682
    -0.000412     -0.000099      0.003389
    -0.012220      0.009558      0.003867
     0.001642     -0.002363      0.002644
    -0.015435      0.011076      0.003727
    -0.021146      0.013712      0.003462
    -0.004075      0.003258      0.003602
    -0.003246      0.002232      0.003238
    -0.000056     -0.000890      0.003098
     0.000938     -0.001480      0.003163
     0.003794     -0.004061      0.002611
    -0.016053      0.011725      0.003994
     0.005164     -0.005724      0.002158
    -0.018624      0.012692      0.003623
    -0.017659      0.011645      0.003860
     0.006744     -0.007995      0.001629
     0.008645     -0.008823      0.001534
    -0.005508      0.004728      0.004094
    -0.004390      0.002936      0.003701
    -0.012229      0.009141      0.004038
    -0.014649      0.010242      0.004274
    -0.015627      0.010737      0.004167
    -0.018864      0.012289      0.004000
    -0.020006      0.013395      0.003837
     0.006897     -0.007706      0.001811
    -0.022140      0.014219      0.003652
    -0.007413      0.006011      0.003985
    -0.006775      0.005235      0.004142
    -0.010356      0.008231      0.004234
    -0.000628     -0.000344      0.003431
     0.002146     -0.003160      0.002853
     0.006566     -0.007883      0.001935
    -0.023278      0.014652      0.003752
    -0.004914      0.003726      0.003974
    -0.010560      0.008448      0.004462
     0.002995     -0.003326      0.003164
     0.004360     -0.004960      0.002453
     0.006604     -0.007228      0.002269
     0.008315     -0.008882      0.001811
    -0.001677      0.000747      0.003693
    -0.013331      0.009511      0.004362
    -0.017548      0.011240      0.004153
    -0.021608      0.013466      0.003831
     0.007923     -0.008478      0.001988
    -0.009337      0.007421      0.004734
    -0.006154      0.005050      0.004345
    -0.003885      0.003144      0.004246
    -0.011760      0.008444      0.004536
     0.004757     -0.005067      0.002912
     0.005587     -0.005896      0.002710
    -0.019949      0.012628      0.004184
    -0.023628      0.014287      0.003871
    -0.002984      0.002079      0.003965
    -0.001645      0.000720      0.004002
     0.000745     -0.001219      0.003799
    -0.012721      0.009163      0.004632
    -0.015991      0.010662      0.004483
     0.006814     -0.007807      0.002293
    -0.024919      0.015013      0.004002
    -0.013525      0.009130      0.004839
     0.005504     -0.005771      0.003151
    -0.021947      0.013463      0.004025
     0.008233     -0.008897      0.002207
    -0.008039      0.006377      0.004799
    -0.004560      0.003501      0.004561
    -0.002948      0.001792      0.004426
     0.002559     -0.003360      0.003524
    -0.015551      0.009892      0.004746
     0.005278     -0.005998      0.003316
    -0.018821      0.011514      0.004382
     0.006986     -0.007954      0.002533
    -0.023922      0.013842      0.004080
    -0.010260      0.007911      0.005064
    -0.006968      0.005655      0.004964
     0.001930     -0.002478      0.003800
    -0.016690      0.010217      0.004725
     0.006135     -0.006775      0.002896
     0.007556     -0.008435      0.002930
     0.009336     -0.009382      0.002470
    -0.003537      0.002579      0.004684
     0.000106     -0.000640      0.004179
     0.002425     -0.002694      0.004077
     0.003946     -0.004361      0.003595
    -0.020033      0.012127      0.004653
    -0.020910      0.012440      0.004408
    -0.003657      0.003053      0.004889
    -0.011917      0.008644      0.005003
     0.006404     -0.007294      0.003129
    -0.023921      0.013274      0.004326
    -0.024976      0.014228      0.004261
     0.008387     -0.009204      0.002565
    -0.005480      0.004666      0.005172
    -0.001447      0.000942      0.004710
    -0.000751     -0.000004      0.004597
    -0.015719      0.009504      0.005038
    -0.021274      0.012151      0.004597
    -0.002340      0.001948      0.004970
     0.001257     -0.001801      0.004344
     0.004799     -0.005429      0.003799
    -0.017598      0.011033      0.004774
     0.006986     -0.007857      0.003293
     0.008553     -0.009375      0.002809
    -0.009452      0.007277      0.005486
    -0.011232      0.008147      0.005335
     0.000254     -0.000695      0.004661
    -0.017143      0.010055      0.005113
     0.008641     -0.009064      0.003090
    -0.007624      0.006236      0.005443
     0.002133     -0.003181      0.004261
    -0.015423      0.009273      0.005246
     0.003528     -0.004230      0.004189
    -0.018897      0.011206      0.004880
     0.006958     -0.008237      0.003345
    -0.023600      0.012364      0.004520
    -0.006525      0.005071      0.005532
    -0.004488      0.003156      0.005332
    -0.002959      0.001676      0.005151
    -0.001811      0.001065      0.005141
    -0.011950      0.007698      0.005567
    -0.000997     -0.000126      0.004871
    -0.012610      0.008380      0.005321
    -0.021743      0.011442      0.004768
    -0.007910      0.006008      0.005680
    -0.005159      0.004277      0.005389
    -0.010788      0.007397      0.005538
     0.001068     -0.001530      0.004655
     0.001829     -0.002525      0.004627
    -0.016440      0.008622      0.005416
     0.005818     -0.006832      0.003801
    -0.020315      0.010940      0.005091
    -0.024314      0.012423      0.004675
     0.009332     -0.009781      0.003028
    -0.014114      0.008057      0.005623
     0.004083     -0.004792      0.004388