# vtk DataFile Version 2.0
3DChange_M1
ASCII
DATASET UNSTRUCTURED_GRID
POINTS 9125 float
     2.674381      1.755919     10.434041
     2.722092      1.752677     10.468710
     2.731226      1.740873     10.484828
     2.761366      1.749822     10.485967
     2.656174      1.745330     10.460862
     2.666685      1.743249     10.508389
     2.585850      1.757708     10.536609
     2.648833      1.733432     10.544295
     2.714672      1.736245     10.524775
     2.610120      1.746606     10.509685
     2.638576      1.744793     10.535830
     2.745048      1.750345     10.516603
     2.768152      1.745241     10.550191
     2.727711      1.734039     10.544757
     2.672935      1.719991     10.559967
     2.695137      1.730784     10.566743
     2.582247      1.747104     10.559908
     2.781452      1.739438     10.577346
     2.648687      1.730294     10.586625
     2.717989      1.717866     10.590606
     2.611287      1.745109     10.587654
     2.656225      1.722384     10.603509
     2.769105      1.732392     10.595946
     2.568019      1.747165     10.621762
     2.742209      1.727795     10.587677
     2.619367      1.734740     10.607909
     2.697480      1.717726     10.623733
     2.761351      1.726194     10.623008
     2.799222      1.742948     10.621920
     2.613589      1.733630     10.624014
     2.819498      1.973944      9.180492
     2.661005      1.981820      9.204238
     2.753633      1.967946      9.182273
     2.818744      1.965785      9.209597
     2.724130      1.970916      9.216403
     2.683979      1.973202      9.216075
     2.720340      1.959368      9.233941
     2.772038      1.967709      9.248909
     2.649107      1.975442      9.252452
     2.848345      1.962340      9.234086
     2.865113      1.974632      9.231792
     2.693246      1.973726      9.251242
     2.669580      1.962037      9.254116
     2.786725      1.955440      9.262900
     2.704656      1.961454      9.283348
     2.607941      1.977912      9.272740
     2.762503      1.957744      9.286750
     2.825346      1.964765      9.279205
     2.620679      1.980338      9.292393
     2.842758      1.974163      9.264019
     2.680183      1.962367      9.279618
     2.630320      1.966289      9.300698
     2.700490      1.950661      9.296897
     2.844859      1.958938      9.291537
     2.737196      1.952113      9.313724
     2.757359      1.946850      9.297922
     2.604627      1.970059      9.327600
     2.895652      1.972274      9.315788
     2.641718      1.954360      9.315773
     2.804806      1.948196      9.298041
     2.727172      1.949646      9.341322
     2.848992      1.958479      9.332676
     2.595769      1.965397      9.360955
     2.731043      1.937457      9.353215
     2.837852      1.953504      9.352360
     2.644177      1.959123      9.359309
     2.889896      1.961408      9.343168
     2.908679      1.978500      9.341420
     2.676677      1.953852      9.379320
     2.700766      1.937422      9.387449
     2.737805      1.938930      9.376002
     2.773378      1.946939      9.368664
     2.591997      1.972239      9.390098
     2.637798      1.951775      9.385282
     2.832209      1.942757      9.352440
     2.654179      1.941875      9.377302
     2.891270      1.955138      9.381461
     2.901126      1.971630      9.372911
     2.651199      1.939328      9.407068
     2.617924      1.956947      9.401777
     2.859813      1.952864      9.403397
     2.571453      1.986842      9.415074
     2.676651      1.944010      9.406960
     2.750451      1.937057      9.410436
     2.829645      1.931658      9.405493
     2.869933      1.964189      9.416630
     2.717143      1.934504      9.423923
     2.761896      1.932240      9.428898
     2.601480      1.946343      9.432229
     2.632687      1.945364      9.427950
     2.845984      1.941676      9.410440
     2.911694      1.967804      9.415184
     2.675208      1.931146      9.428202
     2.584721      1.960806      9.460859
     2.738738      1.941622      9.447639
     2.884375      1.950458      9.432485
     2.643798      1.932677      9.453515
     2.798993      1.935182      9.457620
     2.540658      1.990289      9.471794
     2.672391      1.919700      9.456047
     2.701973      1.930367      9.461110
     2.767171      1.925091      9.455193
     2.614168      1.946294      9.469779
     2.868812      1.954314      9.462225
     2.560787      1.976537      9.453608
     2.638656      1.921204      9.484079
     2.838623      1.938879      9.475248
     2.865205      1.935721      9.482893
     2.917429      1.966907      9.459498
     2.703402      1.918512      9.481382
     2.820490      1.921828      9.485508
     2.596962      1.947200      9.503739
     2.536660      1.987548      9.497839
     2.609505      1.936514      9.529060
     2.744304      1.927504      9.496227
     2.567782      1.967188      9.497668
     2.901084      1.943469      9.506941
     2.950127      1.971188      9.481383
     2.743714      1.916629      9.508574
     2.803659      1.924109      9.516304
     2.662796      1.909413      9.528205
     2.669220      1.921140      9.523265
     2.834975      1.929535      9.506867
     2.718527      1.918404      9.537476
     2.627363      1.923676      9.544611
     2.557081      1.959609      9.510101
     2.573830      1.954794      9.535222
     2.933767      1.959066      9.514780
     2.519969      1.980771      9.554767
     2.574272      1.940744      9.567676
     2.804522      1.913372      9.534664
     2.871745      1.938374      9.525608
     2.550427      1.960954      9.566215
     2.958604      1.974834      9.517062
     2.630935      1.911426      9.559355
     2.713262      1.906469      9.551302
     2.784029      1.914686      9.568455
     2.847776      1.917342      9.547858
     2.897798      1.929587      9.548779
     2.672102      1.924813      9.578468
     2.598085      1.924636      9.565923
     2.921470      1.945831      9.554287
     2.532681      1.982633      9.565017
     2.956888      1.968154      9.561068
     2.884382      1.934098      9.576880
     2.613810      1.913243      9.611668
     2.651124      1.911994      9.587104
     2.778925      1.903751      9.576176
     2.832038      1.924490      9.582079
     2.567835      1.960713      9.594057
     2.500010      1.991665      9.589693
     2.973481      1.962450      9.571287
     2.741913      1.906761      9.623617
     2.593407      1.926489      9.609251
     2.562537      1.945011      9.601979
     2.526368      1.962947      9.625604
     2.661942      1.899918      9.606897
     2.699161      1.898233      9.592622
     2.725809      1.907239      9.600430
     2.824649      1.907236      9.588666
     2.844428      1.911775      9.602021
     2.888690      1.922868      9.605376
     2.982464      1.979232      9.606939
     2.605030      1.902786      9.651005
     2.913692      1.935508      9.600262
     2.495906      1.983536      9.641317
     2.603007      1.924034      9.631143
     2.763460      1.893428      9.616392
     2.555979      1.944916      9.642974
     2.882935      1.912717      9.634548
     2.938329      1.955498      9.607298
     2.787784      1.903958      9.639819
     3.011133      1.996933      9.638734
     2.635401      1.901190      9.653238
     2.667157      1.899890      9.668913
     2.695782      1.884420      9.661101
     2.824731      1.901396      9.660550
     2.573975      1.924921      9.642441
     2.524661      1.953088      9.651841
     2.997458      1.964822      9.659682
     2.724119      1.896586      9.656568
     2.867454      1.911959      9.655377
     2.537750      1.950348      9.674967
     2.961524      1.960776      9.627798
     2.639774      1.889798      9.663383
     2.763280      1.890315      9.662928
     2.846550      1.912283      9.663414
     2.909833      1.931038      9.653672
     2.952852      1.950295      9.658507
     2.475163      1.989216      9.684119
     2.747347      1.898432      9.689656
     2.818382      1.890068      9.672043
     2.892196      1.920245      9.668179
     2.555147      1.939458      9.689061
     2.934954      1.935929      9.674031
     2.498820      1.983535      9.689649
     2.831726      1.903038      9.691535
     2.972817      1.958037      9.692106
     3.005853      1.967812      9.696838
     2.687488      1.886322      9.700198
     2.607973      1.897708      9.704352
     2.814528      1.890060      9.708188
     2.561467      1.919878      9.719013
     2.515374      1.959486      9.715591
     2.640147      1.889198      9.713511
     2.716021      1.874174      9.728794
     2.588364      1.903848      9.701374
     2.849855      1.895838      9.700922
     2.889507      1.918509      9.715932
     2.907671      1.930794      9.711299
     2.496649      1.966811      9.709626
     2.945206      1.939685      9.683806
     2.469416      1.986185      9.734542
     2.758970      1.883424      9.704042
     2.781725      1.893626      9.717746
     2.582348      1.900518      9.745751
     2.534410      1.937593      9.745417
     2.935298      1.940281      9.714745
     2.595203      1.890598      9.759695
     2.619896      1.884366      9.738404
     2.682754      1.883929      9.730285
     2.725648      1.884834      9.690192
     2.781272      1.881587      9.734122
     2.563489      1.925855      9.758512
     2.893802      1.908854      9.737528
     2.959689      1.941102      9.745053
     3.001285      1.975370      9.726270
     2.647954      1.878914      9.760610
     2.756508      1.880114      9.751565
     2.868621      1.897700      9.755057
     2.918698      1.918610      9.726265
     2.495124      1.969002      9.752154
     2.986725      1.959036      9.727700
     2.726390      1.874768      9.768115
     2.824460      1.890482      9.765465
[...]
POINT_DATA 9125
VECTORS U float
    -0.007584      0.002158      0.006511
    -0.005039      0.000282      0.006567
    -0.004230     -0.000084      0.006622
    -0.002852     -0.001100      0.006590
    -0.008327      0.002364      0.006579
    -0.007739      0.001277      0.006584
    -0.012354      0.002494      0.006389
    -0.008451      0.001338      0.006617
    -0.004976     -0.000273      0.006629
    -0.010726      0.002588      0.006489
    -0.009279      0.001513      0.006545
    -0.003710     -0.001240      0.006574
    -0.002275     -0.002486      0.006595
    -0.004207     -0.000980      0.006639
    -0.006804      0.000625      0.006688
    -0.005872     -0.000354      0.006632
    -0.012292      0.002340      0.006426
    -0.001242     -0.003372      0.006593
    -0.008355      0.000700      0.006591
    -0.004233     -0.001227      0.006666
    -0.010699      0.001321      0.006469
    -0.007717      0.000362      0.006610
    -0.001759     -0.003169      0.006603
    -0.012969      0.001951      0.006406
    -0.003166     -0.002096      0.006629
    -0.009966      0.001009      0.006510
    -0.005283     -0.001178      0.006615
    -0.001955     -0.003329      0.006593
    -0.000090     -0.004869      0.006538
    -0.010216      0.000944      0.006497
    -0.001392      0.003130     -0.004462
    -0.007647      0.011470     -0.003617
    -0.003930      0.006580     -0.004188
    -0.001099      0.002881     -0.004175
    -0.005176      0.008063     -0.003756
    -0.006575      0.010134     -0.003556
    -0.004859      0.008030     -0.003485
    -0.003181      0.005310     -0.003663
    -0.007816      0.011865     -0.003008
     0.000299      0.001040     -0.004092
     0.000637      0.000355     -0.004235
    -0.006314      0.009587     -0.003262
    -0.006649      0.010589     -0.003025
    -0.002091      0.004243     -0.003528
    -0.005572      0.008580     -0.002944
    -0.009184      0.013709     -0.002581
    -0.003295      0.005479     -0.003200
    -0.000826      0.002099     -0.003631
    -0.009035      0.012959     -0.002501
    -0.000415      0.001318     -0.003911
    -0.006403      0.009853     -0.002848
    -0.008296      0.012199     -0.002401
    -0.005352      0.008526     -0.002726
     0.000221      0.000874     -0.003583
    -0.004236      0.006607     -0.002777
    -0.003135      0.005555     -0.002999
    -0.009269      0.013145     -0.002026
     0.002242     -0.001613     -0.003622
    -0.007548      0.011314     -0.002255
    -0.001121      0.002940     -0.003252
    -0.004578      0.006871     -0.002446
     0.000344      0.000447     -0.003239
    -0.009516      0.013151     -0.001650
    -0.004031      0.006460     -0.002280
     0.000002      0.000911     -0.002973
    -0.007828      0.010851     -0.001896
     0.002284     -0.001545     -0.003308
     0.002660     -0.002273     -0.003488
    -0.006636      0.009003     -0.001870
    -0.005244      0.007591     -0.001834
    -0.003951      0.005954     -0.002128
    -0.002663      0.004227     -0.002431
    -0.010079      0.013037     -0.001438
    -0.007949      0.010776     -0.001605
     0.000154      0.001107     -0.002876
    -0.006964      0.009988     -0.001694
     0.002490     -0.001801     -0.002955
     0.002443     -0.002085     -0.003160
    -0.007179      0.009755     -0.001427
    -0.008889      0.011544     -0.001399
     0.000886     -0.000459     -0.002648
    -0.011377      0.013793     -0.001222
    -0.006451      0.008580     -0.001593
    -0.003518      0.004929     -0.001918
     0.000269      0.000867     -0.002348
     0.000962     -0.000872     -0.002643
    -0.004766      0.006384     -0.001619
    -0.002916      0.004136     -0.001804
    -0.009212      0.011830     -0.001003
    -0.008207      0.010435     -0.001201
     0.000621      0.000094     -0.002455
     0.003016     -0.002738     -0.002827
    -0.006166      0.008306     -0.001338
    -0.010450      0.012362     -0.000781
    -0.004367      0.005145     -0.001596
     0.002148     -0.001694     -0.002478
    -0.007520      0.009518     -0.000977
    -0.001458      0.002096     -0.001783
    -0.012879      0.014464     -0.000654
    -0.006027      0.008065     -0.001029
    -0.005375      0.006678     -0.001219
    -0.002548      0.003598     -0.001579
    -0.009119      0.010794     -0.000775
     0.001116     -0.001077     -0.002197
    -0.011650      0.013678     -0.000808
    -0.007499      0.009359     -0.000638
     0.000158      0.000133     -0.001860
     0.001510     -0.001130     -0.001899
     0.003231     -0.003131     -0.002480
    -0.005020      0.006369     -0.000992
    -0.000120      0.000843     -0.001580
    -0.009951      0.011214     -0.000446
    -0.013172      0.014289     -0.000437
    -0.009388      0.010301     -0.000268
    -0.003898      0.004419     -0.001153
    -0.011509      0.012741     -0.000465
     0.003023     -0.002715     -0.001893
     0.004764     -0.004619     -0.002458
    -0.003619      0.004362     -0.000978
    -0.001123      0.001532     -0.001263
    -0.006511      0.007804     -0.000372
    -0.006665      0.007605     -0.000517
     0.000187      0.000133     -0.001529
    -0.004802      0.005328     -0.000633
    -0.008481      0.009247     -0.000177
    -0.011669      0.013055     -0.000270
    -0.011222      0.011963     -0.000154
     0.004213     -0.004082     -0.002058
    -0.014052      0.014290      0.000081
    -0.010977      0.011530      0.000167
    -0.000801      0.001394     -0.001046
     0.001598     -0.001532     -0.001600
    -0.012475      0.012701      0.000144
     0.005038     -0.005103     -0.002241
    -0.008026      0.008873     -0.000017
    -0.004666      0.005464     -0.000417
    -0.001978      0.002228     -0.000677
     0.001032     -0.000634     -0.001180
     0.003170     -0.002758     -0.001457
    -0.007086      0.007014     -0.000151
    -0.009606      0.010390      0.000130
     0.003877     -0.003731     -0.001614
    -0.013840      0.013578      0.000071
     0.005072     -0.005208     -0.001851
     0.002218     -0.002244     -0.001211
    -0.009044      0.009249      0.000448
    -0.007493      0.007777      0.000086
    -0.001889      0.002443     -0.000510
    -0.000103      0.000004     -0.000873
    -0.012177      0.011606      0.000249
    -0.015389      0.014699      0.000327
     0.006120     -0.005953     -0.001796
    -0.003980      0.003856      0.000017
    -0.010173      0.010251      0.000460
    -0.011805      0.011767      0.000450
    -0.013863      0.013259      0.000691
    -0.006772      0.007193      0.000270
    -0.005177      0.005794      0.000022
    -0.004505      0.004661     -0.000094
     0.000106      0.000282     -0.000667
     0.000852     -0.000694     -0.000700
     0.002727     -0.002589     -0.000935
     0.006020     -0.006263     -0.001643
    -0.009218      0.009411      0.000870
     0.003657     -0.003586     -0.001155
    -0.015719      0.014362      0.000779
    -0.009943      0.009653      0.000585
    -0.002476      0.002952     -0.000046
    -0.012343      0.011777      0.000795
     0.002674     -0.002521     -0.000627
     0.004341     -0.004609     -0.001334
    -0.001760      0.001663     -0.000076
     0.006834     -0.006952     -0.001542
    -0.008202      0.007969      0.000718
    -0.007001      0.006599      0.000718
    -0.005285      0.005536      0.000655
     0.000049     -0.000151     -0.000097
    -0.010981      0.010946      0.000835
    -0.013753      0.013149      0.000975
     0.007104     -0.006865     -0.001147
    -0.004522      0.004390      0.000418
     0.001834     -0.002008     -0.000416
    -0.013414      0.012379      0.001098
     0.005389     -0.005636     -0.001299
    -0.007714      0.007750      0.000856
    -0.002611      0.002680      0.000332
     0.000747     -0.001156     -0.000268
     0.003451     -0.003676     -0.000705
     0.005152     -0.005398     -0.000954
    -0.016974      0.014751      0.001120
    -0.003807      0.003223      0.000558
     0.000073      0.000078      0.000104
     0.002823     -0.003054     -0.000461
    -0.012523      0.011500      0.001189
     0.004582     -0.004757     -0.000669
    -0.016131      0.013787      0.001118
     0.000231     -0.000653      0.000081
     0.005925     -0.006282     -0.000814
     0.007390     -0.007197     -0.000886
    -0.005928      0.005626      0.000970
    -0.009332      0.008964      0.001293
    -0.000244      0.000036      0.000395
    -0.011799      0.011033      0.001517
    -0.014925      0.012985      0.001429
    -0.008034      0.007462      0.001242
    -0.004530      0.004341      0.001147
    -0.010156      0.009918      0.001348
     0.001352     -0.001530      0.000110
     0.002627     -0.003201     -0.000077
     0.003208     -0.003869     -0.000258
    -0.015728      0.013726      0.001393
     0.004992     -0.005192     -0.000654
    -0.017616      0.014429      0.001491
    -0.002811      0.002641      0.000713
    -0.002044      0.001454      0.000610
    -0.010573      0.009931      0.001736
    -0.013689      0.011981      0.001711
     0.004387     -0.004946     -0.000387
    -0.009928      0.009271      0.001834
    -0.008760      0.008266      0.001576
    -0.006212      0.005647      0.001228
    -0.004271      0.004158      0.000756
    -0.001754      0.001413      0.000822
    -0.012340      0.010614      0.001739
     0.003123     -0.003485      0.000147
     0.005632     -0.006016     -0.000235
     0.006906     -0.007182     -0.000702
    -0.007676      0.006952      0.001647
    -0.003044      0.002418      0.001078
     0.002133     -0.002619      0.000446
     0.004148     -0.004377     -0.000089
    -0.016352      0.013330      0.001657
     0.006591     -0.006822     -0.000560
    -0.004313      0.003637      0.001374
     0.000076     -0.000774      0.000776
    -0.012494      0.010783      0.002109
    -0.007723      0.007173      0.001910
    -0.008644      0.008179      0.001871
     0.003868     -0.004431      0.000412
    -0.013520      0.011497      0.002031
    -0.014968      0.012073      0.002067
    -0.005493      0.004808      0.001719
    -0.000406     -0.000150      0.001028
    -0.017371      0.013474      0.001911
     0.005614     -0.006227     -0.000202
    -0.018239      0.014157      0.001795
    -0.003375      0.003017      0.001515
    -0.002974      0.002138      0.001371
    -0.009752      0.008361      0.002015
    -0.006819      0.005947      0.002059
    -0.016039      0.012879      0.002220
     0.004755     -0.005454      0.000205
     0.005505     -0.006142      0.000168
     0.007156     -0.007379     -0.000174
    -0.009638      0.008416      0.002294
     0.001042     -0.001881      0.001022
    -0.011787      0.010091      0.002290
     0.002422     -0.002835      0.000817
     0.003642     -0.004009      0.000737
     0.006612     -0.007176      0.000202
    -0.005336      0.004432      0.002001
    -0.000689     -0.000329      0.001418
    -0.012916      0.010738      0.002583
     0.003869     -0.004685      0.000781
    -0.014570      0.011653      0.002495
     0.005517     -0.006224      0.000556
    -0.017607      0.013162      0.002259
    -0.007733      0.006930      0.002436
    -0.005677      0.005196      0.002154
    -0.008801      0.007714      0.002407
    -0.003400      0.002473      0.001835
    -0.000775      0.000029      0.001614
    -0.010749      0.009303      0.002510
     0.000935     -0.001487      0.001321
    -0.018910      0.013877      0.002309
    -0.001467      0.000744      0.001849
    -0.017202      0.013113      0.002546
    -0.020487      0.014632      0.002552
    -0.009662      0.007921      0.002584
     0.001357     -0.002163      0.001383
    -0.015851      0.011674      0.002715
     0.005701     -0.006146      0.000883
     0.006400     -0.007224      0.000454
    -0.018069      0.012913      0.002560
    -0.003496      0.002342      0.002161
    -0.001050      0.000060      0.001968
     0.002883     -0.003565      0.001394
    -0.013910      0.011208      0.002867
    -0.016419      0.012054      0.002511
     0.006827     -0.007566      0.000706
    -0.018926      0.013682      0.002713
    -0.009779      0.008579      0.003038
    -0.007491      0.006166      0.002762
    -0.003736      0.002923      0.002349
     0.003679     -0.004470      0.001495
     0.004199     -0.005294      0.001255
    -0.010842      0.008914      0.003382
     0.002221     -0.002938      0.001659
    -0.014555      0.011576      0.003227
    -0.016885      0.012132      0.003030
    -0.004845      0.003713      0.002628
    -0.001878      0.000755      0.002341
    -0.001158      0.000496      0.002519
     0.001458     -0.002123      0.001947
    -0.011245      0.009550      0.002959
    -0.012593      0.010069      0.003359
    -0.017843      0.012642      0.003051
    -0.019113      0.013203      0.002941
     0.007503     -0.007989      0.000377
    -0.008309      0.006937      0.003076
    -0.005983      0.005118      0.002862
     0.000638     -0.001208      0.002204
     0.006461     -0.007084      0.000944
    -0.009993      0.008104      0.003432
    -0.003340      0.002531      0.002901
    -0.002733      0.001770      0.002579
     0.003150     -0.003667      0.001867
    -0.020466      0.014100      0.003060
     0.006683     -0.007809      0.001020
    -0.009309      0.007759      0.003585
    -0.007424      0.005992      0.003306
     0.001400     -0.002389      0.002239
    -0.013762      0.010219      0.003754
     0.005253     -0.006023      0.001563
    -0.006124      0.005185      0.003505
     0.000125     -0.000753      0.002619
    -0.015180      0.011234      0.003349
     0.004982     -0.006462      0.001505
     0.006368     -0.007359      0.001267
    -0.022159      0.014621      0.003239
    -0.004873      0.003639      0.003345
     0.004271     -0.004781      0.002041
     0.005835     -0.006109      0.001882
    -0.018750      0.012820      0.003329
    -0.003438      0.002114      0.002918
     0.002290     -0.003256      0.002432
    -0.016537      0.011712      0.003607
     0.005571     -0.006543      0.001726
     0.007006     -0.007550      0.001623
     0.007585     -0.008354      0.001265
    -0.011053      0.008632      0.003889
    -0.008237      0.006532      0.003640
    -0.000407     -0.000098      0.003350
    -0.012081      0.009449      0.003823
     0.001623     -0.002336      0.002613
    -0.015259      0.010950      0.003684
    -0.020904      0.013556      0.003423
    -0.004028      0.003220      0.003561
    -0.003209      0.002207      0.003201
    -0.000056     -0.000880      0.003063
     0.000927     -0.001463      0.003126
     0.003751     -0.004015      0.002581
    -0.015869      0.011591      0.003949
     0.005105     -0.005659      0.002133
    -0.018411      0.012547      0.003582
    -0.017457      0.011511      0.003816
     0.006667     -0.007904      0.001610
     0.008546     -0.008722      0.001516
    -0.005445      0.004674      0.004047
    -0.004339      0.002903      0.003659
    -0.012089      0.009037      0.003992
    -0.014482      0.010125      0.004225
    -0.015448      0.010614      0.004119
    -0.018648      0.012148      0.003955
    -0.019777      0.013242      0.003794
     0.006818     -0.007618      0.001791
    -0.021887      0.014056      0.003610
    -0.007328      0.005943      0.003940
    -0.006698      0.005175      0.004095
    -0.010238      0.008137      0.004186
    -0.000621     -0.000340      0.003392
     0.002122     -0.003124      0.002821
     0.006491     -0.007793      0.001913
    -0.023012      0.014485      0.003710
    -0.004857      0.003684      0.003928
    -0.010439      0.008351      0.004411
     0.002961     -0.003288      0.003127
     0.004310     -0.004903      0.002425
     0.006529     -0.007145      0.002243
     0.008220     -0.008781      0.001791
    -0.001658      0.000738      0.003651
    -0.013179      0.009402      0.004312
    -0.017347      0.011111      0.004106
    -0.021361      0.013312      0.003788
     0.007833     -0.008381      0.001965
    -0.009230      0.007336      0.004679
    -0.006084      0.004992      0.004295
    -0.003840      0.003108      0.004197
    -0.011626      0.008347      0.004484
     0.004702     -0.005009      0.002878
     0.005523     -0.005829      0.002679
    -0.019721      0.012483      0.004136
    -0.023358      0.014123      0.003827
    -0.002950      0.002055      0.003920
    -0.001626      0.000712      0.003956
     0.000737     -0.001205      0.003756
    -0.012575      0.009058      0.004579
    -0.015808      0.010540      0.004431
     0.006736     -0.007718      0.002266
    -0.024634      0.014841      0.003956
    -0.013370      0.009026      0.004783
     0.005441     -0.005705      0.003115
    -0.021696      0.013309      0.003979
     0.008139     -0.008796      0.002182
    -0.007947      0.006304      0.004744
    -0.004508      0.003461      0.004508
    -0.002915      0.001772      0.004375
     0.002530     -0.003321      0.003483
    -0.015373      0.009779      0.004692
     0.005217     -0.005930      0.003278
    -0.018606      0.011382      0.004332
     0.006906     -0.007863      0.002504
    -0.023649      0.013683      0.004033
    -0.010142      0.007821      0.005006
    -0.006889      0.005590      0.004908
     0.001908     -0.002450      0.003756
    -0.016499      0.010100      0.004671
     0.006065     -0.006698      0.002863
     0.007469     -0.008338      0.002896
     0.009229     -0.009274      0.002442
    -0.003496      0.002550      0.004630
     0.000105     -0.000633      0.004132
     0.002397     -0.002663      0.004031
     0.003901     -0.004311      0.003554
    -0.019804      0.011988      0.004600
    -0.020671      0.012297      0.004358
    -0.003615      0.003018      0.004833
    -0.011780      0.008545      0.004946
     0.006331     -0.007211      0.003093
    -0.023648      0.013122      0.004277
    -0.024690      0.014065      0.004212
     0.008292     -0.009099      0.002536
    -0.005418      0.004612      0.005113
    -0.001430      0.000931      0.004656
    -0.000742     -0.000004      0.004544
    -0.015540      0.009395      0.004980
    -0.021031      0.012013      0.004545
    -0.002314      0.001926      0.004913
     0.001243     -0.001780      0.004294
     0.004744     -0.005367      0.003755
    -0.017396      0.010907      0.004720
     0.006906     -0.007768      0.003256
     0.008455     -0.009268      0.002777
    -0.009344      0.007193      0.005423
    -0.011104      0.008054      0.005274
     0.000252     -0.000687      0.004608
    -0.016947      0.009940      0.005055
     0.008542     -0.008960      0.003055
    -0.007537      0.006165      0.005380
     0.002109     -0.003145      0.004213
    -0.015247      0.009167      0.005186
     0.003487     -0.004182      0.004141
    -0.018681      0.011078      0.004825
     0.006879     -0.008142      0.003306
    -0.023330      0.012223      0.004469
    -0.006451      0.005013      0.005469
    -0.004437      0.003120      0.005272
    -0.002926      0.001657      0.005092
    -0.001790      0.001053      0.005082
    -0.011813      0.007610      0.005503
    -0.000985     -0.000125      0.004815
    -0.012465      0.008284      0.005260
    -0.021494      0.011311      0.004714
    -0.007820      0.005939      0.005615
    -0.005100      0.004228      0.005327
    -0.010665      0.007313      0.005475
     0.001056     -0.001512      0.004602
     0.001808     -0.002497      0.004574
    -0.016252      0.008524      0.005354
     0.005752     -0.006754      0.003758
    -0.020083      0.010815      0.005033
    -0.024036      0.012281      0.004622
     0.009226     -0.009669      0.002993
    -0.013953      0.007964      0.005559
     0.004037     -0.004737      0.004338