# vtk DataFile Version 2.0
3DFinal1_M1
ASCII
DATASET UNSTRUCTURED_GRID
POINTS 9125 float
     2.683050      1.753453     10.426599
     2.727852      1.752354     10.461203
     2.736061      1.740969     10.477259
     2.764627      1.751079     10.478434
     2.665692      1.742628     10.453342
     2.675531      1.741789     10.500864
     2.599971      1.754858     10.529305
     2.658493      1.731903     10.536732
     2.720360      1.736557     10.517198
     2.622380      1.743648     10.502269
     2.649182      1.743064     10.528349
     2.749289      1.751763     10.509088
     2.770752      1.748083     10.542653
     2.732520      1.735159     10.537169
     2.680712      1.719277     10.552322
     2.701849      1.731188     10.559162
     2.596298      1.744430     10.552563
     2.782872      1.743293     10.569810
     2.658237      1.729495     10.579091
     2.722827      1.719269     10.582986
     2.623516      1.743600     10.580259
     2.665045      1.721970     10.595953
     2.771116      1.736014     10.588398
     2.582843      1.744935     10.614440
     2.745828      1.730191     10.580100
     2.630757      1.733586     10.600468
     2.703518      1.719074     10.616172
     2.763585      1.729999     10.615472
     2.799325      1.748514     10.614447
     2.625266      1.732551     10.616588
     2.821090      1.970366      9.185592
     2.669745      1.968710      9.208372
     2.758126      1.960425      9.187061
     2.820000      1.962492      9.214369
     2.730047      1.961700      9.220696
     2.691494      1.961619      9.220139
     2.725894      1.950190      9.237924
     2.775674      1.961640      9.253096
     2.658041      1.961880      9.255891
     2.848002      1.961151      9.238763
     2.864385      1.974227      9.236633
     2.700463      1.962768      9.254970
     2.677180      1.949933      9.257574
     2.789115      1.950590      9.266933
     2.711025      1.951646      9.286713
     2.618438      1.962242      9.275691
     2.766270      1.951481      9.290407
     2.826291      1.962366      9.283355
     2.631007      1.965526      9.295251
     2.843232      1.972656      9.268489
     2.687502      1.951105      9.282873
     2.639802      1.952346      9.303443
     2.706607      1.940916      9.300013
     2.844606      1.957939      9.295632
     2.742037      1.944560      9.316898
     2.760942      1.940501      9.301349
     2.615222      1.955033      9.329915
     2.893089      1.974117      9.319928
     2.650345      1.941427      9.318350
     2.806087      1.944835      9.301758
     2.732405      1.941793      9.344117
     2.848599      1.957969      9.336377
     2.606646      1.950366      9.362841
     2.735649      1.930073      9.355821
     2.837850      1.952463      9.355758
     2.653125      1.946720      9.361476
     2.887285      1.963174      9.346949
     2.905639      1.981098      9.345407
     2.684262      1.943561      9.381457
     2.706760      1.928745      9.389545
     2.742322      1.932125      9.378435
     2.776423      1.942107      9.371443
     2.603518      1.957338      9.391742
     2.646884      1.939458      9.387116
     2.832033      1.941492      9.355727
     2.662139      1.930458      9.379238
     2.888424      1.957197      9.384838
     2.898333      1.974014      9.376523
     2.659404      1.928177      9.408699
     2.628085      1.943753      9.403376
     2.858800      1.953389      9.406424
     2.584458      1.971076      9.416471
     2.684025      1.934203      9.408781
     2.754473      1.931422      9.412628
     2.829338      1.930668      9.408176
     2.868833      1.965186      9.419651
     2.722590      1.927207      9.425773
     2.765229      1.927512      9.430960
     2.612009      1.932821      9.433376
     2.642067      1.933436      9.429322
     2.845273      1.941568      9.413246
     2.908247      1.970933      9.418416
     2.682257      1.921652      9.429732
     2.596666      1.946676      9.461752
     2.743730      1.935740      9.449464
     2.881920      1.952394      9.435318
     2.652393      1.921799      9.454631
     2.800659      1.932786      9.459658
     2.555378      1.973757      9.472541
     2.679280      1.910481      9.457223
     2.708116      1.922734      9.462504
     2.770084      1.920978      9.456997
     2.624591      1.933956      9.470665
     2.867536      1.955545      9.464736
     2.574103      1.960902      9.454532
     2.647228      1.910507      9.484808
     2.838442      1.938727      9.477373
     2.863479      1.937013      9.485064
     2.913736      1.970485      9.462333
     2.709140      1.911231      9.482516
     2.820628      1.920865      9.487315
     2.608336      1.934382      9.504249
     2.551715      1.971216      9.498338
     2.620235      1.924740      9.529367
     2.748759      1.922454      9.497545
     2.580937      1.952625      9.498200
     2.897629      1.946572      9.509104
     2.944682      1.976467      9.484193
     2.747851      1.911644      9.509692
     2.804943      1.922358      9.517748
     2.670238      1.900493      9.528631
     2.676839      1.912447      9.523856
     2.834761      1.929383      9.508615
     2.724015      1.912314      9.538199
     2.637057      1.913107      9.544813
     2.570419      1.944687      9.510410
     2.586657      1.941120      9.535397
     2.928952      1.963732      9.517133
     2.536030      1.964438      9.554674
     2.586819      1.927565      9.567485
     2.805437      1.911779      9.535859
     2.869918      1.940125      9.527437
     2.564687      1.946436      9.566051
     2.952845      1.980667      9.519623
     2.640108      1.901284      9.559374
     2.718596      1.900224      9.551779
     2.786291      1.912139      9.569229
     2.846597      1.918066      9.549207
     2.894176      1.932740      9.550444
     2.680202      1.916795      9.578641
     2.609065      1.912759      9.565774
     2.917038      1.950095      9.556132
     2.548501      1.967112      9.564937
     2.951091      1.974106      9.563185
     2.881847      1.936664      9.578264
     2.624147      1.902671      9.611156
     2.659688      1.903104      9.587006
     2.781084      1.900959      9.576759
     2.832156      1.924486      9.583078
     2.581754      1.947448      9.593772
     2.517600      1.974864      9.589319
     2.966486      1.969254      9.573339
     2.746463      1.902353      9.623597
     2.605035      1.914772      9.608725
     2.576030      1.931561      9.601465
     2.542214      1.947791      9.624814
     2.669682      1.891696      9.606589
     2.705079      1.891610      9.592597
     2.730958      1.901912      9.600538
     2.824528      1.906913      9.589428
     2.843454      1.912568      9.602821
     2.885574      1.925827      9.606445
     2.975583      1.986391      9.608818
     2.615566      1.892029      9.650011
     2.909512      1.939607      9.601583
     2.513874      1.967120      9.640426
     2.614372      1.913001      9.630474
     2.766289      1.890054      9.616445
     2.570087      1.931455      9.642065
     2.879878      1.915599      9.635265
     2.933366      1.960767      9.608824
     2.789796      1.902057      9.639906
     3.003321      2.004879      9.640497
     2.644776      1.892081      9.652418
     2.675159      1.892347      9.668093
     2.701823      1.878093      9.660352
     2.824675      1.901569      9.660661
     2.586526      1.912409      9.641487
     2.540381      1.938058      9.650726
     2.989338      1.972669      9.660993
     2.729288      1.891568      9.656090
     2.865358      1.914254      9.655853
     2.553083      1.936198      9.673712
     2.955364      1.967218      9.629283
     2.648591      1.880940      9.662404
     2.766264      1.887252      9.662548
     2.845696      1.913604      9.663720
     2.905889      1.935239      9.654478
     2.946964      1.956464      9.659597
     2.494565      1.972355      9.682839
     2.751698      1.894749      9.689018
     2.818299      1.889979      9.671924
     2.888970      1.923736      9.668706
     2.569461      1.926313      9.687702
     2.929717      1.941367      9.674796
     2.517258      1.967776      9.688371
     2.831462      1.903784      9.691443
     2.966045      1.965217      9.693036
     2.997406      1.976038      9.697850
     2.694264      1.879892      9.699089
     2.618639      1.887462      9.702874
     2.814808      1.890020      9.707737
     2.574954      1.907268      9.717279
     2.532433      1.944644      9.713958
     2.649330      1.880669      9.712091
     2.721199      1.869213      9.727484
     2.599972      1.892511      9.699833
     2.848310      1.897587      9.700797
     2.886504      1.922168      9.716021
     2.904005      1.935217      9.711594
     2.514627      1.951121      9.708034
     2.939500      1.945620      9.684554
     2.489551      1.969692      9.732837
     2.762184      1.880405      9.703228
     2.784061      1.891964      9.717048
     2.594432      1.889166      9.743766
     2.550057      1.923898      9.743461
     2.930284      1.945933      9.715188
     2.606551      1.880001      9.757599
     2.629908      1.874918      9.736602
     2.689855      1.877474      9.728881
     2.730530      1.880081      9.689328
     2.783277      1.879972      9.733183
     2.577593      1.913723      9.756524
     2.890233      1.912837      9.737360
     2.953251      1.947979      9.745322
     2.993392      1.983580      9.727073
     2.656729      1.870968      9.758728
     2.759987      1.877350      9.750334
     2.866183      1.900693      9.754547
     2.913957      1.923613      9.726367
     2.513815      1.953766      9.750260
     2.979191      1.966834      9.728340
     2.731319      1.870611      9.766544
     2.824372      1.891367      9.764577
[...]
POINT_DATA 9125
VECTORS U float
    -0.007672      0.002183      0.006587
    -0.005097      0.000285      0.006643
    -0.004279     -0.000085      0.006699
    -0.002885     -0.001112      0.006667
    -0.008423      0.002391      0.006655
    -0.007828      0.001292      0.006660
    -0.012497      0.002523      0.006463
    -0.008549      0.001353      0.006693
    -0.005034     -0.000276      0.006706
    -0.010850      0.002618      0.006564
    -0.009386      0.001530      0.006620
    -0.003753     -0.001254      0.006650
    -0.002302     -0.002515      0.006671
    -0.004256     -0.000991      0.006716
    -0.006883      0.000632      0.006766
    -0.005940     -0.000358      0.006709
    -0.012434      0.002367      0.006500
    -0.001257     -0.003411      0.006669
    -0.008452      0.000708      0.006668
    -0.004282     -0.001241      0.006743
    -0.010823      0.001336      0.006544
    -0.007806      0.000366      0.006687
    -0.001780     -0.003205      0.006679
    -0.013119      0.001973      0.006480
    -0.003203     -0.002120      0.006706
    -0.010081      0.001021      0.006586
    -0.005344     -0.001192      0.006691
    -0.001977     -0.003368      0.006669
    -0.000091     -0.004926      0.006613
    -0.010334      0.000955      0.006572
    -0.001408      0.003166     -0.004514
    -0.007735      0.011603     -0.003659
    -0.003976      0.006656     -0.004237
    -0.001112      0.002915     -0.004223
    -0.005236      0.008157     -0.003800
    -0.006651      0.010251     -0.003597
    -0.004915      0.008122     -0.003525
    -0.003218      0.005371     -0.003705
    -0.007907      0.012002     -0.003043
     0.000303      0.001052     -0.004139
     0.000644      0.000359     -0.004284
    -0.006387      0.009698     -0.003300
    -0.006726      0.010712     -0.003060
    -0.002116      0.004292     -0.003569
    -0.005636      0.008679     -0.002978
    -0.009290      0.013868     -0.002611
    -0.003333      0.005543     -0.003237
    -0.000836      0.002123     -0.003673
    -0.009140      0.013109     -0.002530
    -0.000420      0.001334     -0.003956
    -0.006477      0.009967     -0.002881
    -0.008392      0.012340     -0.002429
    -0.005414      0.008625     -0.002758
     0.000224      0.000884     -0.003624
    -0.004284      0.006684     -0.002809
    -0.003171      0.005619     -0.003033
    -0.009376      0.013297     -0.002049
     0.002268     -0.001631     -0.003664
    -0.007635      0.011445     -0.002281
    -0.001134      0.002974     -0.003289
    -0.004631      0.006950     -0.002474
     0.000348      0.000452     -0.003276
    -0.009626      0.013303     -0.001670
    -0.004077      0.006535     -0.002306
     0.000002      0.000921     -0.003008
    -0.007919      0.010977     -0.001918
     0.002311     -0.001563     -0.003346
     0.002691     -0.002299     -0.003528
    -0.006713      0.009107     -0.001891
    -0.005305      0.007678     -0.001855
    -0.003997      0.006022     -0.002153
    -0.002694      0.004276     -0.002459
    -0.010196      0.013187     -0.001455
    -0.008041      0.010900     -0.001623
     0.000156      0.001120     -0.002909
    -0.007044      0.010104     -0.001714
     0.002519     -0.001822     -0.002989
     0.002471     -0.002109     -0.003197
    -0.007262      0.009868     -0.001444
    -0.008992      0.011677     -0.001415
     0.000896     -0.000464     -0.002679
    -0.011509      0.013953     -0.001236
    -0.006525      0.008680     -0.001612
    -0.003559      0.004986     -0.001940
     0.000272      0.000877     -0.002375
     0.000973     -0.000882     -0.002673
    -0.004821      0.006458     -0.001637
    -0.002950      0.004184     -0.001825
    -0.009318      0.011967     -0.001015
    -0.008301      0.010556     -0.001215
     0.000629      0.000096     -0.002483
     0.003051     -0.002770     -0.002860
    -0.006237      0.008402     -0.001354
    -0.010571      0.012505     -0.000790
    -0.004418      0.005205     -0.001615
     0.002173     -0.001714     -0.002507
    -0.007607      0.009628     -0.000988
    -0.001475      0.002120     -0.001804
    -0.013028      0.014631     -0.000661
    -0.006096      0.008159     -0.001041
    -0.005437      0.006756     -0.001233
    -0.002578      0.003640     -0.001597
    -0.009224      0.010918     -0.000784
     0.001129     -0.001089     -0.002223
    -0.011784      0.013836     -0.000818
    -0.007586      0.009467     -0.000645
     0.000160      0.000135     -0.001881
     0.001528     -0.001143     -0.001921
     0.003268     -0.003167     -0.002509
    -0.005078      0.006443     -0.001004
    -0.000122      0.000852     -0.001599
    -0.010067      0.011344     -0.000451
    -0.013324      0.014454     -0.000442
    -0.009496      0.010420     -0.000271
    -0.003943      0.004470     -0.001166
    -0.011642      0.012888     -0.000470
     0.003058     -0.002747     -0.001915
     0.004819     -0.004672     -0.002486
    -0.003661      0.004412     -0.000989
    -0.001136      0.001549     -0.001277
    -0.006587      0.007894     -0.000377
    -0.006742      0.007693     -0.000523
     0.000189      0.000134     -0.001547
    -0.004857      0.005390     -0.000640
    -0.008579      0.009353     -0.000179
    -0.011804      0.013206     -0.000273
    -0.011352      0.012102     -0.000155
     0.004261     -0.004129     -0.002082
    -0.014214      0.014455      0.000082
    -0.011104      0.011663      0.000168
    -0.000810      0.001410     -0.001058
     0.001617     -0.001550     -0.001618
    -0.012620      0.012848      0.000145
     0.005097     -0.005162     -0.002267
    -0.008118      0.008976     -0.000017
    -0.004720      0.005527     -0.000422
    -0.002001      0.002254     -0.000685
     0.001044     -0.000641     -0.001194
     0.003206     -0.002790     -0.001474
    -0.007168      0.007095     -0.000153
    -0.009717      0.010510      0.000132
     0.003922     -0.003774     -0.001633
    -0.014000      0.013735      0.000071
     0.005130     -0.005268     -0.001873
     0.002243     -0.002270     -0.001225
    -0.009148      0.009356      0.000453
    -0.007580      0.007867      0.000087
    -0.001911      0.002471     -0.000516
    -0.000105      0.000004     -0.000883
    -0.012318      0.011740      0.000252
    -0.015567      0.014868      0.000331
     0.006190     -0.006022     -0.001816
    -0.004026      0.003901      0.000017
    -0.010291      0.010369      0.000465
    -0.011942      0.011903      0.000455
    -0.014023      0.013412      0.000699
    -0.006850      0.007276      0.000273
    -0.005237      0.005861      0.000022
    -0.004557      0.004715     -0.000095
     0.000107      0.000286     -0.000674
     0.000861     -0.000702     -0.000708
     0.002758     -0.002619     -0.000946
     0.006089     -0.006336     -0.001662
    -0.009324      0.009520      0.000880
     0.003700     -0.003628     -0.001169
    -0.015901      0.014528      0.000788
    -0.010058      0.009765      0.000592
    -0.002504      0.002986     -0.000047
    -0.012485      0.011913      0.000804
     0.002705     -0.002550     -0.000635
     0.004391     -0.004663     -0.001350
    -0.001781      0.001682     -0.000077
     0.006913     -0.007032     -0.001560
    -0.008297      0.008061      0.000726
    -0.007082      0.006676      0.000726
    -0.005347      0.005600      0.000663
     0.000050     -0.000153     -0.000098
    -0.011108      0.011073      0.000844
    -0.013912      0.013301      0.000987
     0.007186     -0.006945     -0.001160
    -0.004575      0.004441      0.000423
     0.001855     -0.002031     -0.000421
    -0.013569      0.012522      0.001111
     0.005452     -0.005701     -0.001314
    -0.007803      0.007839      0.000866
    -0.002641      0.002711      0.000336
     0.000756     -0.001169     -0.000271
     0.003490     -0.003718     -0.000713
     0.005211     -0.005460     -0.000965
    -0.017171      0.014922      0.001132
    -0.003851      0.003260      0.000565
     0.000074      0.000079      0.000105
     0.002855     -0.003089     -0.000467
    -0.012668      0.011633      0.001203
     0.004635     -0.004812     -0.000677
    -0.016317      0.013946      0.001131
     0.000234     -0.000660      0.000082
     0.005993     -0.006354     -0.000823
     0.007476     -0.007280     -0.000896
    -0.005996      0.005691      0.000981
    -0.009440      0.009068      0.001308
    -0.000247      0.000036      0.000400
    -0.011936      0.011160      0.001535
    -0.015097      0.013136      0.001445
    -0.008127      0.007548      0.001257
    -0.004582      0.004391      0.001160
    -0.010273      0.010033      0.001364
     0.001367     -0.001548      0.000111
     0.002658     -0.003238     -0.000078
     0.003245     -0.003914     -0.000261
    -0.015910      0.013885      0.001409
     0.005049     -0.005252     -0.000662
    -0.017819      0.014596      0.001508
    -0.002844      0.002672      0.000721
    -0.002067      0.001471      0.000617
    -0.010695      0.010046      0.001756
    -0.013847      0.012120      0.001731
     0.004438     -0.005003     -0.000392
    -0.010043      0.009378      0.001855
    -0.008861      0.008362      0.001594
    -0.006283      0.005712      0.001242
    -0.004320      0.004206      0.000765
    -0.001774      0.001429      0.000831
    -0.012483      0.010737      0.001760
     0.003159     -0.003525      0.000149
     0.005697     -0.006086     -0.000238
     0.006985     -0.007265     -0.000710
    -0.007765      0.007032      0.001666
    -0.003079      0.002446      0.001090
     0.002158     -0.002649      0.000451
     0.004196     -0.004427     -0.000090
    -0.016542      0.013484      0.001676
     0.006668     -0.006901     -0.000566
    -0.004362      0.003679      0.001390
     0.000077     -0.000783      0.000785
    -0.012638      0.010908      0.002133
    -0.007812      0.007256      0.001932
    -0.008744      0.008273      0.001893
     0.003913     -0.004482      0.000417
    -0.013676      0.011630      0.002055
    -0.015141      0.012212      0.002091
    -0.005557      0.004863      0.001739
    -0.000411     -0.000152      0.001040
    -0.017572      0.013630      0.001933
     0.005679     -0.006298     -0.000204
    -0.018450      0.014321      0.001816
    -0.003414      0.003052      0.001533
    -0.003008      0.002163      0.001387
    -0.009865      0.008457      0.002039
    -0.006897      0.006016      0.002082
    -0.016224      0.013028      0.002246
     0.004810     -0.005517      0.000207
     0.005569     -0.006213      0.000170
     0.007239     -0.007464     -0.000176
    -0.009749      0.008514      0.002321
     0.001054     -0.001902      0.001033
    -0.011924      0.010207      0.002316
     0.002450     -0.002868      0.000826
     0.003685     -0.004056      0.000745
     0.006689     -0.007259      0.000204
    -0.005397      0.004484      0.002024
    -0.000697     -0.000333      0.001434
    -0.013066      0.010863      0.002613
     0.003914     -0.004739      0.000790
    -0.014739      0.011787      0.002524
     0.005581     -0.006296      0.000563
    -0.017810      0.013315      0.002285
    -0.007822      0.007010      0.002464
    -0.005743      0.005256      0.002179
    -0.008903      0.007804      0.002434
    -0.003439      0.002502      0.001857
    -0.000784      0.000030      0.001632
    -0.010874      0.009410      0.002539
     0.000945     -0.001504      0.001336
    -0.019129      0.014038      0.002336
    -0.001483      0.000753      0.001870
    -0.017401      0.013265      0.002576
    -0.020724      0.014801      0.002581
    -0.009774      0.008013      0.002614
     0.001373     -0.002188      0.001399
    -0.016034      0.011808      0.002746
     0.005767     -0.006218      0.000893
     0.006474     -0.007308      0.000459
    -0.018278      0.013062      0.002590
    -0.003536      0.002369      0.002186
    -0.001062      0.000061      0.001990
     0.002916     -0.003606      0.001410
    -0.014071      0.011337      0.002901
    -0.016609      0.012193      0.002540
     0.006906     -0.007653      0.000714
    -0.019145      0.013840      0.002744
    -0.009892      0.008678      0.003073
    -0.007578      0.006237      0.002794
    -0.003779      0.002957      0.002376
     0.003722     -0.004522      0.001512
     0.004247     -0.005355      0.001270
    -0.010967      0.009017      0.003421
     0.002247     -0.002972      0.001678
    -0.014723      0.011710      0.003264
    -0.017081      0.012272      0.003065
    -0.004901      0.003756      0.002658
    -0.001900      0.000764      0.002368
    -0.001171      0.000502      0.002548
     0.001475     -0.002148      0.001970
    -0.011376      0.009660      0.002994
    -0.012739      0.010186      0.003398
    -0.018049      0.012789      0.003087
    -0.019334      0.013356      0.002975
     0.007590     -0.008081      0.000381
    -0.008405      0.007018      0.003111
    -0.006052      0.005177      0.002896
     0.000646     -0.001222      0.002230
     0.006536     -0.007166      0.000955
    -0.010109      0.008198      0.003472
    -0.003379      0.002561      0.002935
    -0.002765      0.001790      0.002608
     0.003186     -0.003709      0.001889
    -0.020702      0.014263      0.003095
     0.006760     -0.007900      0.001032
    -0.009417      0.007848      0.003626
    -0.007510      0.006061      0.003344
     0.001417     -0.002416      0.002265
    -0.013921      0.010337      0.003797
     0.005314     -0.006093      0.001581
    -0.006195      0.005245      0.003545
     0.000126     -0.000762      0.002649
    -0.015356      0.011364      0.003388
     0.005039     -0.006537      0.001522
     0.006441     -0.007444      0.001282
    -0.022416      0.014790      0.003276
    -0.004930      0.003681      0.003384
     0.004320     -0.004836      0.002065
     0.005902     -0.006180      0.001904
    -0.018967      0.012968      0.003368
    -0.003477      0.002138      0.002952
     0.002317     -0.003294      0.002460
    -0.016728      0.011848      0.003648
     0.005635     -0.006619      0.001746
     0.007087     -0.007637      0.001641
     0.007672     -0.008450      0.001279
    -0.011181      0.008732      0.003934
    -0.008332      0.006607      0.003682
    -0.000412     -0.000099      0.003389
    -0.012220      0.009558      0.003867
     0.001642     -0.002363      0.002644
    -0.015435      0.011076      0.003727
    -0.021146      0.013712      0.003462
    -0.004075      0.003258      0.003602
    -0.003246      0.002232      0.003238
    -0.000056     -0.000890      0.003098
     0.000938     -0.001480      0.003163
     0.003794     -0.004061      0.002611
    -0.016053      0.011725      0.003994
     0.005164     -0.005724      0.002158
    -0.018624      0.012692      0.003623
    -0.017659      0.011645      0.003860
     0.006744     -0.007995      0.001629
     0.008645     -0.008823      0.001534
    -0.005508      0.004728      0.004094
    -0.004390      0.002936      0.003701
    -0.012229      0.009141      0.004038
    -0.014649      0.010242      0.004274
    -0.015627      0.010737      0.004167
    -0.018864      0.012289      0.004000
    -0.020006      0.013395      0.003837
     0.006897     -0.007706      0.001811
    -0.022140      0.014219      0.003652
    -0.007413      0.006011      0.003985
    -0.006775      0.005235      0.004142
    -0.010356      0.008231      0.004234
    -0.000628     -0.000344      0.003431
     0.002146     -0.003160      0.002853
     0.006566     -0.007883      0.001935
    -0.023278      0.014652      0.003752
    -0.004914      0.003726      0.003974
    -0.010560      0.008448      0.004462
     0.002995     -0.003326      0.003164
     0.004360     -0.004960      0.002453
     0.006604     -0.007228      0.002269
     0.008315     -0.008882      0.001811
    -0.001677      0.000747      0.003693
    -0.013331      0.009511      0.004362
    -0.017548      0.011240      0.004153
    -0.021608      0.013466      0.003831
     0.007923     -0.008478      0.001988
    -0.009337      0.007421      0.004734
    -0.006154      0.005050      0.004345
    -0.003885      0.003144      0.004246
    -0.011760      0.008444      0.004536
     0.004757     -0.005067      0.002912
     0.005587     -0.005896      0.002710
    -0.019949      0.012628      0.004184
    -0.023628      0.014287      0.003871
    -0.002984      0.002079      0.003965
    -0.001645      0.000720      0.004002
     0.000745     -0.001219      0.003799
    -0.012721      0.009163      0.004632
    -0.015991      0.010662      0.004483
     0.006814     -0.007807      0.002293
    -0.024919      0.015013      0.004002
    -0.013525      0.009130      0.004839
     0.005504     -0.005771      0.003151
    -0.021947      0.013463      0.004025
     0.008233     -0.008897      0.002207
    -0.008039      0.006377      0.004799
    -0.004560      0.003501      0.004561
    -0.002948      0.001792      0.004426
     0.002559     -0.003360      0.003524
    -0.015551      0.009892      0.004746
     0.005278     -0.005998      0.003316
    -0.018821      0.011514      0.004382
     0.006986     -0.007954      0.002533
    -0.023922      0.013842      0.004080
    -0.010260      0.007911      0.005064
    -0.006968      0.005655      0.004964
     0.001930     -0.002478      0.003800
    -0.016690      0.010217      0.004725
     0.006135     -0.006775      0.002896
     0.007556     -0.008435      0.002930
     0.009336     -0.009382      0.002470
    -0.003537      0.002579      0.004684
     0.000106     -0.000640      0.004179
     0.002425     -0.002694      0.004077
     0.003946     -0.004361      0.003595
    -0.020033      0.012127      0.004653
    -0.020910      0.012440      0.004408
    -0.003657      0.003053      0.004889
    -0.011917      0.008644      0.005003
     0.006404     -0.007294      0.003129
    -0.023921      0.013274      0.004326
    -0.024976      0.014228      0.004261
     0.008387     -0.009204      0.002565
    -0.005480      0.004666      0.005172
    -0.001447      0.000942      0.004710
    -0.000751     -0.000004      0.004597
    -0.015719      0.009504      0.005038
    -0.021274      0.012151      0.004597
    -0.002340      0.001948      0.004970
     0.001257     -0.001801      0.004344
     0.004799     -0.005429      0.003799
    -0.017598      0.011033      0.004774
     0.006986     -0.007857      0.003293
     0.008553     -0.009375      0.002809
    -0.009452      0.007277      0.005486
    -0.011232      0.008147      0.005335
     0.000254     -0.000695      0.004661
    -0.017143      0.010055      0.005113
     0.008641     -0.009064      0.003090
    -0.007624      0.006236      0.005443
     0.002133     -0.003181      0.004261
    -0.015423      0.009273      0.005246
     0.003528     -0.004230      0.004189
    -0.018897      0.011206      0.004880
     0.006958     -0.008237      0.003345
    -0.023600      0.012364      0.004520
    -0.006525      0.005071      0.005532
    -0.004488      0.003156      0.005332
    -0.002959      0.001676      0.005151
    -0.001811      0.001065      0.005141
    -0.011950      0.007698      0.005567
    -0.000997     -0.000126      0.004871
    -0.012610      0.008380      0.005321
    -0.021743      0.011442      0.004768
    -0.007910      0.006008      0.005680
    -0.005159      0.004277      0.005389
    -0.010788      0.007397      0.005538
     0.001068     -0.001530      0.004655
     0.001829     -0.002525      0.004627
    -0.016440      0.008622      0.005416
     0.005818     -0.006832      0.003801
    -0.020315      0.010940      0.005091
    -0.024314      0.012423      0.004675
     0.009332     -0.009781      0.003028
    -0.014114      0.008057      0.005623
     0.004083     -0.004792      0.004388