# vtk DataFile Version 2.0
3DFinal_M1
ASCII
DATASET UNSTRUCTURED_GRID
POINTS 9125 float
     2.681965      1.753761     10.427530
     2.727131      1.752394     10.462143
     2.735456      1.740957     10.478206
     2.764219      1.750922     10.479376
     2.664501      1.742966     10.454283
     2.674424      1.741972     10.501805
     2.598204      1.755215     10.530219
     2.657284      1.732094     10.537678
     2.719649      1.736518     10.518146
     2.620846      1.744018     10.503197
     2.647855      1.743281     10.529285
     2.748758      1.751585     10.510029
     2.770427      1.747727     10.543596
     2.731919      1.735019     10.538118
     2.679739      1.719366     10.553278
     2.701009      1.731138     10.560111
     2.594540      1.744765     10.553482
     2.782694      1.742810     10.570753
     2.657042      1.729595     10.580034
     2.722222      1.719093     10.583940
     2.621986      1.743789     10.581185
     2.663942      1.722022     10.596899
     2.770865      1.735561     10.589342
     2.580988      1.745214     10.615356
     2.745375      1.729891     10.581048
     2.629332      1.733731     10.601399
     2.702763      1.718905     10.617118
     2.763305      1.729523     10.616414
     2.799312      1.747817     10.615382
     2.623805      1.732686     10.617517
     2.820891      1.970814      9.184954
     2.668652      1.970350      9.207854
     2.757563      1.961366      9.186462
     2.819843      1.962904      9.213772
     2.729306      1.962853      9.220159
     2.690554      1.963068      9.219631
     2.725199      1.951338      9.237426
     2.775219      1.962400      9.252572
     2.656923      1.963577      9.255461
     2.848045      1.961299      9.238178
     2.864476      1.974277      9.236027
     2.699560      1.964139      9.254504
     2.676229      1.951447      9.257141
     2.788816      1.951197      9.266428
     2.710228      1.952874      9.286292
     2.617125      1.964203      9.275322
     2.765798      1.952265      9.289950
     2.826172      1.962666      9.282835
     2.629715      1.967379      9.294894
     2.843173      1.972844      9.267930
     2.686586      1.952514      9.282466
     2.638616      1.954090      9.303099
     2.705842      1.942135      9.299623
     2.844638      1.958064      9.295120
     2.741431      1.945505      9.316501
     2.760493      1.941295      9.300920
     2.613896      1.956913      9.329626
     2.893409      1.973887      9.319410
     2.649265      1.943045      9.318028
     2.805927      1.945256      9.301293
     2.731750      1.942776      9.343768
     2.848648      1.958032      9.335914
     2.605285      1.952246      9.362605
     2.735073      1.930997      9.355495
     2.837851      1.952593      9.355333
     2.652005      1.948272      9.361205
     2.887612      1.962953      9.346476
     2.906019      1.980773      9.344908
     2.683313      1.944849      9.381190
     2.706010      1.929831      9.389283
     2.741757      1.932976      9.378130
     2.776042      1.942712      9.371095
     2.602076      1.959202      9.391537
     2.645747      1.940999      9.386887
     2.832055      1.941650      9.355316
     2.661143      1.931886      9.378996
     2.888780      1.956940      9.384416
     2.898683      1.973716      9.376071
     2.658377      1.929573      9.408495
     2.626813      1.945404      9.403176
     2.858927      1.953323      9.406045
     2.582830      1.973049      9.416296
     2.683102      1.935430      9.408553
     2.753970      1.932127      9.412354
     2.829376      1.930792      9.407841
     2.868971      1.965061      9.419273
     2.721908      1.928120      9.425542
     2.764812      1.928104      9.430702
     2.610692      1.934513      9.433232
     2.640893      1.934928      9.429150
     2.845362      1.941582      9.412895
     2.908678      1.970542      9.418012
     2.681375      1.922840      9.429540
     2.595171      1.948444      9.461640
     2.743105      1.936476      9.449235
     2.882227      1.952152      9.434964
     2.651317      1.923160      9.454492
     2.800451      1.933086      9.459403
     2.553536      1.975825      9.472448
     2.678418      1.911635      9.457076
     2.707348      1.923689      9.462330
     2.769719      1.921493      9.456772
     2.623287      1.935500      9.470554
     2.867696      1.955391      9.464422
     2.572437      1.962858      9.454416
     2.646155      1.911845      9.484717
     2.838464      1.938746      9.477107
     2.863694      1.936851      9.484792
     2.914198      1.970038      9.461978
     2.708422      1.912142      9.482374
     2.820610      1.920985      9.487089
     2.606913      1.935986      9.504185
     2.549831      1.973260      9.498275
     2.618892      1.926213      9.529328
     2.748202      1.923086      9.497380
     2.579291      1.954447      9.498133
     2.898061      1.946184      9.508834
     2.945363      1.975807      9.483841
     2.747333      1.912268      9.509552
     2.804783      1.922577      9.517567
     2.669307      1.901609      9.528577
     2.675886      1.913535      9.523783
     2.834788      1.929402      9.508396
     2.723328      1.913076      9.538109
     2.635844      1.914430      9.544787
     2.568750      1.946554      9.510371
     2.585052      1.942831      9.535376
     2.929554      1.963148      9.516839
     2.534020      1.966482      9.554686
     2.585249      1.929214      9.567509
     2.805322      1.911978      9.535710
     2.870147      1.939906      9.527208
     2.562902      1.948253      9.566072
     2.953566      1.979937      9.519303
     2.638960      1.902553      9.559372
     2.717929      1.901006      9.551719
     2.786008      1.912457      9.569132
     2.846744      1.917975      9.549038
     2.894629      1.932345      9.550236
     2.679188      1.917798      9.578620
     2.607691      1.914245      9.565793
     2.917593      1.949561      9.555901
     2.546522      1.969054      9.564947
     2.951816      1.973361      9.562920
     2.882164      1.936343      9.578091
     2.622853      1.903994      9.611220
     2.658617      1.904216      9.587018
     2.780814      1.901308      9.576686
     2.832141      1.924486      9.582953
     2.580012      1.949108      9.593808
     2.515399      1.976966      9.589366
     2.967361      1.968402      9.573082
     2.745893      1.902905      9.623600
     2.603580      1.916238      9.608791
     2.574342      1.933244      9.601529
     2.540231      1.949688      9.624913
     2.668713      1.892725      9.606627
     2.704339      1.892439      9.592600
     2.730313      1.902578      9.600524
     2.824544      1.906953      9.589333
     2.843576      1.912469      9.602721
     2.885964      1.925457      9.606311
     2.976444      1.985495      9.608583
     2.614247      1.893375      9.650135
     2.910035      1.939094      9.601417
     2.511625      1.969174      9.640538
     2.612950      1.914381      9.630558
     2.765935      1.890476      9.616438
     2.568322      1.933139      9.642179
     2.880261      1.915238      9.635176
     2.933987      1.960108      9.608633
     2.789544      1.902295      9.639895
     3.004299      2.003885      9.640276
     2.643603      1.893221      9.652520
     2.674157      1.893291      9.668196
     2.701067      1.878884      9.660445
     2.824682      1.901547      9.660647
     2.584956      1.913975      9.641607
     2.538414      1.939939      9.650865
     2.990354      1.971687      9.660829
     2.728641      1.892196      9.656150
     2.865620      1.913967      9.655793
     2.551165      1.937969      9.673869
     2.956135      1.966412      9.629097
     2.647488      1.882048      9.662526
     2.765891      1.887635      9.662596
     2.845803      1.913439      9.663682
     2.906382      1.934714      9.654377
     2.947700      1.955692      9.659461
     2.492138      1.974465      9.682999
     2.751153      1.895210      9.689098
     2.818309      1.889990      9.671938
     2.889373      1.923299      9.668640
     2.567670      1.927958      9.687872
     2.930372      1.940686      9.674700
     2.514951      1.969748      9.688531
     2.831496      1.903691      9.691454
     2.966892      1.964319      9.692920
     2.998463      1.975009      9.697723
     2.693416      1.880696      9.699228
     2.617305      1.888744      9.703059
     2.814773      1.890025      9.707793
     2.573266      1.908846      9.717496
     2.530299      1.946501      9.714163
     2.648181      1.881736      9.712269
     2.720551      1.869834      9.727648
     2.598520      1.893930      9.700026
     2.848503      1.897368      9.700812
     2.886880      1.921710      9.716010
     2.904463      1.934663      9.711557
     2.512377      1.953084      9.708233
     2.940214      1.944877      9.684460
     2.487032      1.971756      9.733051
     2.761781      1.880783      9.703329
     2.783769      1.892172      9.717136
     2.592920      1.890587      9.744014
     2.548099      1.925611      9.743706
     2.930911      1.945226      9.715132
     2.605131      1.881327      9.757862
     2.628655      1.876100      9.736828
     2.688966      1.878282      9.729057
     2.729919      1.880676      9.689436
     2.783026      1.880174      9.733300
     2.575829      1.915241      9.756772
     2.890679      1.912338      9.737381
     2.954057      1.947119      9.745288
     2.994380      1.982552      9.726972
     2.655631      1.871962      9.758963
     2.759552      1.877696      9.750488
     2.866488      1.900319      9.754611
     2.914550      1.922987      9.726354
     2.511476      1.955673      9.750497
     2.980134      1.965858      9.728260
     2.730702      1.871131      9.766740
     2.824383      1.891257      9.764689
     2.567631      1.904152      9.790469
[...]
POINT_DATA 9125
VECTORS U float
    -0.007584      0.002158      0.006511
    -0.005039      0.000282      0.006567
    -0.004230     -0.000084      0.006622
    -0.002852     -0.001100      0.006590
    -0.008327      0.002364      0.006579
    -0.007739      0.001277      0.006584
    -0.012354      0.002494      0.006389
    -0.008451      0.001338      0.006617
    -0.004976     -0.000273      0.006629
    -0.010726      0.002588      0.006489
    -0.009279      0.001513      0.006545
    -0.003710     -0.001240      0.006574
    -0.002275     -0.002486      0.006595
    -0.004207     -0.000980      0.006639
    -0.006804      0.000625      0.006688
    -0.005872     -0.000354      0.006632
    -0.012292      0.002340      0.006426
    -0.001242     -0.003372      0.006593
    -0.008355      0.000700      0.006591
    -0.004233     -0.001227      0.006666
    -0.010699      0.001321      0.006469
    -0.007717      0.000362      0.006610
    -0.001759     -0.003169      0.006603
    -0.012969      0.001951      0.006406
    -0.003166     -0.002096      0.006629
    -0.009966      0.001009      0.006510
    -0.005283     -0.001178      0.006615
    -0.001955     -0.003329      0.006593
    -0.000090     -0.004869      0.006538
    -0.010216      0.000944      0.006497
    -0.001392      0.003130     -0.004462
    -0.007647      0.011470     -0.003617
    -0.003930      0.006580     -0.004188
    -0.001099      0.002881     -0.004175
    -0.005176      0.008063     -0.003756
    -0.006575      0.010134     -0.003556
    -0.004859      0.008030     -0.003485
    -0.003181      0.005310     -0.003663
    -0.007816      0.011865     -0.003008
     0.000299      0.001040     -0.004092
     0.000637      0.000355     -0.004235
    -0.006314      0.009587     -0.003262
    -0.006649      0.010589     -0.003025
    -0.002091      0.004243     -0.003528
    -0.005572      0.008580     -0.002944
    -0.009184      0.013709     -0.002581
    -0.003295      0.005479     -0.003200
    -0.000826      0.002099     -0.003631
    -0.009035      0.012959     -0.002501
    -0.000415      0.001318     -0.003911
    -0.006403      0.009853     -0.002848
    -0.008296      0.012199     -0.002401
    -0.005352      0.008526     -0.002726
     0.000221      0.000874     -0.003583
    -0.004236      0.006607     -0.002777
    -0.003135      0.005555     -0.002999
    -0.009269      0.013145     -0.002026
     0.002242     -0.001613     -0.003622
    -0.007548      0.011314     -0.002255
    -0.001121      0.002940     -0.003252
    -0.004578      0.006871     -0.002446
     0.000344      0.000447     -0.003239
    -0.009516      0.013151     -0.001650
    -0.004031      0.006460     -0.002280
     0.000002      0.000911     -0.002973
    -0.007828      0.010851     -0.001896
     0.002284     -0.001545     -0.003308
     0.002660     -0.002273     -0.003488
    -0.006636      0.009003     -0.001870
    -0.005244      0.007591     -0.001834
    -0.003951      0.005954     -0.002128
    -0.002663      0.004227     -0.002431
    -0.010079      0.013037     -0.001438
    -0.007949      0.010776     -0.001605
     0.000154      0.001107     -0.002876
    -0.006964      0.009988     -0.001694
     0.002490     -0.001801     -0.002955
     0.002443     -0.002085     -0.003160
    -0.007179      0.009755     -0.001427
    -0.008889      0.011544     -0.001399
     0.000886     -0.000459     -0.002648
    -0.011377      0.013793     -0.001222
    -0.006451      0.008580     -0.001593
    -0.003518      0.004929     -0.001918
     0.000269      0.000867     -0.002348
     0.000962     -0.000872     -0.002643
    -0.004766      0.006384     -0.001619
    -0.002916      0.004136     -0.001804
    -0.009212      0.011830     -0.001003
    -0.008207      0.010435     -0.001201
     0.000621      0.000094     -0.002455
     0.003016     -0.002738     -0.002827
    -0.006166      0.008306     -0.001338
    -0.010450      0.012362     -0.000781
    -0.004367      0.005145     -0.001596
     0.002148     -0.001694     -0.002478
    -0.007520      0.009518     -0.000977
    -0.001458      0.002096     -0.001783
    -0.012879      0.014464     -0.000654
    -0.006027      0.008065     -0.001029
    -0.005375      0.006678     -0.001219
    -0.002548      0.003598     -0.001579
    -0.009119      0.010794     -0.000775
     0.001116     -0.001077     -0.002197
    -0.011650      0.013678     -0.000808
    -0.007499      0.009359     -0.000638
     0.000158      0.000133     -0.001860
     0.001510     -0.001130     -0.001899
     0.003231     -0.003131     -0.002480
    -0.005020      0.006369     -0.000992
    -0.000120      0.000843     -0.001580
    -0.009951      0.011214     -0.000446
    -0.013172      0.014289     -0.000437
    -0.009388      0.010301     -0.000268
    -0.003898      0.004419     -0.001153
    -0.011509      0.012741     -0.000465
     0.003023     -0.002715     -0.001893
     0.004764     -0.004619     -0.002458
    -0.003619      0.004362     -0.000978
    -0.001123      0.001532     -0.001263
    -0.006511      0.007804     -0.000372
    -0.006665      0.007605     -0.000517
     0.000187      0.000133     -0.001529
    -0.004802      0.005328     -0.000633
    -0.008481      0.009247     -0.000177
    -0.011669      0.013055     -0.000270
    -0.011222      0.011963     -0.000154
     0.004213     -0.004082     -0.002058
    -0.014052      0.014290      0.000081
    -0.010977      0.011530      0.000167
    -0.000801      0.001394     -0.001046
     0.001598     -0.001532     -0.001600
    -0.012475      0.012701      0.000144
     0.005038     -0.005103     -0.002241
    -0.008026      0.008873     -0.000017
    -0.004666      0.005464     -0.000417
    -0.001978      0.002228     -0.000677
     0.001032     -0.000634     -0.001180
     0.003170     -0.002758     -0.001457
    -0.007086      0.007014     -0.000151
    -0.009606      0.010390      0.000130
     0.003877     -0.003731     -0.001614
    -0.013840      0.013578      0.000071
     0.005072     -0.005208     -0.001851
     0.002218     -0.002244     -0.001211
    -0.009044      0.009249      0.000448
    -0.007493      0.007777      0.000086
    -0.001889      0.002443     -0.000510
    -0.000103      0.000004     -0.000873
    -0.012177      0.011606      0.000249
    -0.015389      0.014699      0.000327
     0.006120     -0.005953     -0.001796
    -0.003980      0.003856      0.000017
    -0.010173      0.010251      0.000460
    -0.011805      0.011767      0.000450
    -0.013863      0.013259      0.000691
    -0.006772      0.007193      0.000270
    -0.005177      0.005794      0.000022
    -0.004505      0.004661     -0.000094
     0.000106      0.000282     -0.000667
     0.000852     -0.000694     -0.000700
     0.002727     -0.002589     -0.000935
     0.006020     -0.006263     -0.001643
    -0.009218      0.009411      0.000870
     0.003657     -0.003586     -0.001155
    -0.015719      0.014362      0.000779
    -0.009943      0.009653      0.000585
    -0.002476      0.002952     -0.000046
    -0.012343      0.011777      0.000795
     0.002674     -0.002521     -0.000627
     0.004341     -0.004609     -0.001334
    -0.001760      0.001663     -0.000076
     0.006834     -0.006952     -0.001542
    -0.008202      0.007969      0.000718
    -0.007001      0.006599      0.000718
    -0.005285      0.005536      0.000655
     0.000049     -0.000151     -0.000097
    -0.010981      0.010946      0.000835
    -0.013753      0.013149      0.000975
     0.007104     -0.006865     -0.001147
    -0.004522      0.004390      0.000418
     0.001834     -0.002008     -0.000416
    -0.013414      0.012379      0.001098
     0.005389     -0.005636     -0.001299
    -0.007714      0.007750      0.000856
    -0.002611      0.002680      0.000332
     0.000747     -0.001156     -0.000268
     0.003451     -0.003676     -0.000705
     0.005152     -0.005398     -0.000954
    -0.016974      0.014751      0.001120
    -0.003807      0.003223      0.000558
     0.000073      0.000078      0.000104
     0.002823     -0.003054     -0.000461
    -0.012523      0.011500      0.001189
     0.004582     -0.004757     -0.000669
    -0.016131      0.013787      0.001118
     0.000231     -0.000653      0.000081
     0.005925     -0.006282     -0.000814
     0.007390     -0.007197     -0.000886
    -0.005928      0.005626      0.000970
    -0.009332      0.008964      0.001293
    -0.000244      0.000036      0.000395
    -0.011799      0.011033      0.001517
    -0.014925      0.012985      0.001429
    -0.008034      0.007462      0.001242
    -0.004530      0.004341      0.001147
    -0.010156      0.009918      0.001348
     0.001352     -0.001530      0.000110
     0.002627     -0.003201     -0.000077
     0.003208     -0.003869     -0.000258
    -0.015728      0.013726      0.001393
     0.004992     -0.005192     -0.000654
    -0.017616      0.014429      0.001491
    -0.002811      0.002641      0.000713
    -0.002044      0.001454      0.000610
    -0.010573      0.009931      0.001736
    -0.013689      0.011981      0.001711
     0.004387     -0.004946     -0.000387
    -0.009928      0.009271      0.001834
    -0.008760      0.008266      0.001576
    -0.006212      0.005647      0.001228
    -0.004271      0.004158      0.000756
    -0.001754      0.001413      0.000822
    -0.012340      0.010614      0.001739
     0.003123     -0.003485      0.000147
     0.005632     -0.006016     -0.000235
     0.006906     -0.007182     -0.000702
    -0.007676      0.006952      0.001647
    -0.003044      0.002418      0.001078
     0.002133     -0.002619      0.000446
     0.004148     -0.004377     -0.000089
    -0.016352      0.013330      0.001657
     0.006591     -0.006822     -0.000560
    -0.004313      0.003637      0.001374
     0.000076     -0.000774      0.000776
    -0.012494      0.010783      0.002109
    -0.007723      0.007173      0.001910
    -0.008644      0.008179      0.001871
     0.003868     -0.004431      0.000412
    -0.013520      0.011497      0.002031
    -0.014968      0.012073      0.002067
    -0.005493      0.004808      0.001719
    -0.000406     -0.000150      0.001028
    -0.017371      0.013474      0.001911
     0.005614     -0.006227     -0.000202
    -0.018239      0.014157      0.001795
    -0.003375      0.003017      0.001515
    -0.002974      0.002138      0.001371
    -0.009752      0.008361      0.002015
    -0.006819      0.005947      0.002059
    -0.016039      0.012879      0.002220
     0.004755     -0.005454      0.000205
     0.005505     -0.006142      0.000168
     0.007156     -0.007379     -0.000174
    -0.009638      0.008416      0.002294
     0.001042     -0.001881      0.001022
    -0.011787      0.010091      0.002290
     0.002422     -0.002835      0.000817
     0.003642     -0.004009      0.000737
     0.006612     -0.007176      0.000202
    -0.005336      0.004432      0.002001
    -0.000689     -0.000329      0.001418
    -0.012916      0.010738      0.002583
     0.003869     -0.004685      0.000781
    -0.014570      0.011653      0.002495
     0.005517     -0.006224      0.000556
    -0.017607      0.013162      0.002259
    -0.007733      0.006930      0.002436
    -0.005677      0.005196      0.002154
    -0.008801      0.007714      0.002407
    -0.003400      0.002473      0.001835
    -0.000775      0.000029      0.001614
    -0.010749      0.009303      0.002510
     0.000935     -0.001487      0.001321
    -0.018910      0.013877      0.002309
    -0.001467      0.000744      0.001849
    -0.017202      0.013113      0.002546
    -0.020487      0.014632      0.002552
    -0.009662      0.007921      0.002584
     0.001357     -0.002163      0.001383
    -0.015851      0.011674      0.002715
     0.005701     -0.006146      0.000883
     0.006400     -0.007224      0.000454
    -0.018069      0.012913      0.002560
    -0.003496      0.002342      0.002161
    -0.001050      0.000060      0.001968
     0.002883     -0.003565      0.001394
    -0.013910      0.011208      0.002867
    -0.016419      0.012054      0.002511
     0.006827     -0.007566      0.000706
    -0.018926      0.013682      0.002713
    -0.009779      0.008579      0.003038
    -0.007491      0.006166      0.002762
    -0.003736      0.002923      0.002349
     0.003679     -0.004470      0.001495
     0.004199     -0.005294      0.001255
    -0.010842      0.008914      0.003382
     0.002221     -0.002938      0.001659
    -0.014555      0.011576      0.003227
    -0.016885      0.012132      0.003030
    -0.004845      0.003713      0.002628
    -0.001878      0.000755      0.002341
    -0.001158      0.000496      0.002519
     0.001458     -0.002123      0.001947
    -0.011245      0.009550      0.002959
    -0.012593      0.010069      0.003359
    -0.017843      0.012642      0.003051
    -0.019113      0.013203      0.002941
     0.007503     -0.007989      0.000377
    -0.008309      0.006937      0.003076
    -0.005983      0.005118      0.002862
     0.000638     -0.001208      0.002204
     0.006461     -0.007084      0.000944
    -0.009993      0.008104      0.003432
    -0.003340      0.002531      0.002901
    -0.002733      0.001770      0.002579
     0.003150     -0.003667      0.001867
    -0.020466      0.014100      0.003060
     0.006683     -0.007809      0.001020
    -0.009309      0.007759      0.003585
    -0.007424      0.005992      0.003306
     0.001400     -0.002389      0.002239
    -0.013762      0.010219      0.003754
     0.005253     -0.006023      0.001563
    -0.006124      0.005185      0.003505
     0.000125     -0.000753      0.002619
    -0.015180      0.011234      0.003349
     0.004982     -0.006462      0.001505
     0.006368     -0.007359      0.001267
    -0.022159      0.014621      0.003239
    -0.004873      0.003639      0.003345
     0.004271     -0.004781      0.002041
     0.005835     -0.006109      0.001882
    -0.018750      0.012820      0.003329
    -0.003438      0.002114      0.002918
     0.002290     -0.003256      0.002432
    -0.016537      0.011712      0.003607
     0.005571     -0.006543      0.001726
     0.007006     -0.007550      0.001623
     0.007585     -0.008354      0.001265
    -0.011053      0.008632      0.003889
    -0.008237      0.006532      0.003640
    -0.000407     -0.000098      0.003350
    -0.012081      0.009449      0.003823
     0.001623     -0.002336      0.002613
    -0.015259      0.010950      0.003684
    -0.020904      0.013556      0.003423
    -0.004028      0.003220      0.003561
    -0.003209      0.002207      0.003201
    -0.000056     -0.000880      0.003063
     0.000927     -0.001463      0.003126
     0.003751     -0.004015      0.002581
    -0.015869      0.011591      0.003949
     0.005105     -0.005659      0.002133
    -0.018411      0.012547      0.003582
    -0.017457      0.011511      0.003816
     0.006667     -0.007904      0.001610
     0.008546     -0.008722      0.001516
    -0.005445      0.004674      0.004047
    -0.004339      0.002903      0.003659
    -0.012089      0.009037      0.003992
    -0.014482      0.010125      0.004225
    -0.015448      0.010614      0.004119
    -0.018648      0.012148      0.003955
    -0.019777      0.013242      0.003794
     0.006818     -0.007618      0.001791
    -0.021887      0.014056      0.003610
    -0.007328      0.005943      0.003940
    -0.006698      0.005175      0.004095
    -0.010238      0.008137      0.004186
    -0.000621     -0.000340      0.003392
     0.002122     -0.003124      0.002821
     0.006491     -0.007793      0.001913
    -0.023012      0.014485      0.003710
    -0.004857      0.003684      0.003928
    -0.010439      0.008351      0.004411
     0.002961     -0.003288      0.003127
     0.004310     -0.004903      0.002425
     0.006529     -0.007145      0.002243
     0.008220     -0.008781      0.001791
    -0.001658      0.000738      0.003651
    -0.013179      0.009402      0.004312
    -0.017347      0.011111      0.004106
    -0.021361      0.013312      0.003788
     0.007833     -0.008381      0.001965
    -0.009230      0.007336      0.004679
    -0.006084      0.004992      0.004295
    -0.003840      0.003108      0.004197
    -0.011626      0.008347      0.004484
     0.004702     -0.005009      0.002878
     0.005523     -0.005829      0.002679
    -0.019721      0.012483      0.004136
    -0.023358      0.014123      0.003827
    -0.002950      0.002055      0.003920
    -0.001626      0.000712      0.003956
     0.000737     -0.001205      0.003756
    -0.012575      0.009058      0.004579
    -0.015808      0.010540      0.004431
     0.006736     -0.007718      0.002266
    -0.024634      0.014841      0.003956
    -0.013370      0.009026      0.004783
     0.005441     -0.005705      0.003115
    -0.021696      0.013309      0.003979
     0.008139     -0.008796      0.002182
    -0.007947      0.006304      0.004744
    -0.004508      0.003461      0.004508
    -0.002915      0.001772      0.004375
     0.002530     -0.003321      0.003483
    -0.015373      0.009779      0.004692
     0.005217     -0.005930      0.003278
    -0.018606      0.011382      0.004332
     0.006906     -0.007863      0.002504
    -0.023649      0.013683      0.004033
    -0.010142      0.007821      0.005006
    -0.006889      0.005590      0.004908
     0.001908     -0.002450      0.003756
    -0.016499      0.010100      0.004671
     0.006065     -0.006698      0.002863
     0.007469     -0.008338      0.002896
     0.009229     -0.009274      0.002442
    -0.003496      0.002550      0.004630
     0.000105     -0.000633      0.004132
     0.002397     -0.002663      0.004031
     0.003901     -0.004311      0.003554
    -0.019804      0.011988      0.004600
    -0.020671      0.012297      0.004358
    -0.003615      0.003018      0.004833
    -0.011780      0.008545      0.004946
     0.006331     -0.007211      0.003093
    -0.023648      0.013122      0.004277
    -0.024690      0.014065      0.004212
     0.008292     -0.009099      0.002536
    -0.005418      0.004612      0.005113
    -0.001430      0.000931      0.004656
    -0.000742     -0.000004      0.004544
    -0.015540      0.009395      0.004980
    -0.021031      0.012013      0.004545
    -0.002314      0.001926      0.004913
     0.001243     -0.001780      0.004294
     0.004744     -0.005367      0.003755
    -0.017396      0.010907      0.004720
     0.006906     -0.007768      0.003256
     0.008455     -0.009268      0.002777
    -0.009344      0.007193      0.005423
    -0.011104      0.008054      0.005274
     0.000252     -0.000687      0.004608
    -0.016947      0.009940      0.005055
     0.008542     -0.008960      0.003055
    -0.007537      0.006165      0.005380
     0.002109     -0.003145      0.004213
    -0.015247      0.009167      0.005186
     0.003487     -0.004182      0.004141
    -0.018681      0.011078      0.004825
     0.006879     -0.008142      0.003306
    -0.023330      0.012223      0.004469
    -0.006451      0.005013      0.005469
    -0.004437      0.003120      0.005272
    -0.002926      0.001657      0.005092
    -0.001790      0.001053      0.005082
    -0.011813      0.007610      0.005503
    -0.000985     -0.000125      0.004815
    -0.012465      0.008284      0.005260
    -0.021494      0.011311      0.004714
    -0.007820      0.005939      0.005615
    -0.005100      0.004228      0.005327
    -0.010665      0.007313      0.005475
     0.001056     -0.001512      0.004602
     0.001808     -0.002497      0.004574
    -0.016252      0.008524      0.005354
     0.005752     -0.006754      0.003758
    -0.020083      0.010815      0.005033
    -0.024036      0.012281      0.004622
     0.009226     -0.009669      0.002993
    -0.013953      0.007964      0.005559
     0.004037     -0.004737      0.004338