# vtk DataFile Version 2.0
3DMode1
ASCII
DATASET UNSTRUCTURED_GRID
POINTS 9125 float
     2.678173      1.754840     10.430786
     2.724612      1.752536     10.465426
     2.733341      1.740915     10.481517
     2.762793      1.750372     10.482672
     2.660338      1.744148     10.457572
     2.670555      1.742610     10.505097
     2.592027      1.756461     10.533414
     2.653059      1.732763     10.540987
     2.717160      1.736381     10.521460
     2.615483      1.745312     10.506441
     2.643216      1.744037     10.532557
     2.746903      1.750965     10.513316
     2.769289      1.746484     10.546893
     2.729815      1.734529     10.541438
     2.676337      1.719679     10.556622
     2.698073      1.730961     10.563427
     2.588394      1.745935     10.556695
     2.782073      1.741124     10.574049
     2.652864      1.729945     10.583329
     2.720106      1.718480     10.587273
     2.616636      1.744449     10.584419
     2.660083      1.722203     10.600204
     2.769985      1.733977     10.592644
     2.574504      1.746190     10.618559
     2.743792      1.728843     10.584363
     2.624349      1.734235     10.604654
     2.700121      1.718316     10.620426
     2.762328      1.727858     10.619711
     2.799267      1.745383     10.618651
     2.618697      1.733158     10.620766
     2.820195      1.972379      9.182723
     2.664828      1.976085      9.206046
     2.755598      1.964656      9.184368
     2.819294      1.964345      9.211684
     2.726718      1.966885      9.218281
     2.687266      1.968135      9.217853
     2.722770      1.955353      9.235684
     2.773628      1.965054      9.250740
     2.653015      1.969509      9.253957
     2.848195      1.961819      9.236132
     2.864794      1.974455      9.233909
     2.696403      1.968933      9.252873
     2.672904      1.956742      9.255628
     2.787770      1.953318      9.264664
     2.707442      1.957164      9.284820
     2.612533      1.971057      9.274031
     2.764151      1.955004      9.288350
     2.825759      1.963715      9.281020
     2.625197      1.973859      9.293643
     2.842966      1.973504      9.265974
     2.683385      1.957440      9.281042
     2.634468      1.960190      9.301899
     2.703166      1.946398      9.298260
     2.844748      1.958501      9.293329
     2.739313      1.948809      9.315112
     2.758926      1.944073      9.299421
     2.609262      1.963486      9.328613
     2.894530      1.973080      9.317599
     2.645491      1.948702      9.316900
     2.805366      1.946726      9.299667
     2.729461      1.946211      9.342545
     2.848820      1.958256      9.334295
     2.600527      1.958822      9.361780
     2.733058      1.934227      9.354355
     2.837851      1.953048      9.353846
     2.648091      1.953698      9.360257
     2.888754      1.962180      9.344822
     2.907349      1.979636      9.343164
     2.679995      1.949351      9.380255
     2.703388      1.933626      9.388366
     2.739781      1.935953      9.377066
     2.774710      1.944826      9.369880
     2.597037      1.965721      9.390818
     2.641772      1.946387      9.386085
     2.832132      1.942204      9.353878
     2.657661      1.936881      9.378149
     2.890025      1.956039      9.382938
     2.899904      1.972673      9.374491
     2.654788      1.934450      9.407782
     2.622369      1.951175      9.402476
     2.859370      1.953094      9.404721
     2.577142      1.979945      9.415685
     2.679877      1.939720      9.407756
     2.752210      1.934592      9.411395
     2.829511      1.931225      9.406667
     2.869452      1.964625      9.417951
     2.719526      1.931312      9.424732
     2.763354      1.930172      9.429800
     2.606086      1.940428      9.432731
     2.636790      1.940146      9.428550
     2.845673      1.941629      9.411668
     2.910186      1.969173      9.416598
     2.678292      1.926993      9.428871
     2.589946      1.954625      9.461250
     2.740921      1.939049      9.448437
     2.883301      1.951305      9.433725
     2.647557      1.927919      9.454003
     2.799722      1.934134      9.458512
     2.547097      1.983057      9.472121
     2.675405      1.915667      9.456562
     2.704660      1.927028      9.461720
     2.768445      1.923292      9.455982
     2.618728      1.940897      9.470166
     2.868254      1.954853      9.463324
     2.566612      1.969698      9.454012
     2.642406      1.916524      9.484398
     2.838544      1.938812      9.476178
     2.864450      1.936286      9.483843
     2.915814      1.968472      9.460738
     2.705912      1.915327      9.481878
     2.820550      1.921407      9.486299
     2.601937      1.941593      9.503962
     2.543246      1.980404      9.498057
     2.614198      1.931364      9.529194
     2.746253      1.925295      9.496804
     2.573537      1.960818      9.497901
     2.899573      1.944826      9.507887
     2.947745      1.973497      9.482612
     2.745524      1.914449      9.509063
     2.804221      1.923343      9.516936
     2.666051      1.905511      9.528391
     2.672553      1.917337      9.523524
     2.834881      1.929468      9.507631
     2.720928      1.915740      9.537792
     2.631603      1.919053      9.544699
     2.562916      1.953081      9.510236
     2.579441      1.948813      9.535299
     2.931661      1.961107      9.515810
     2.526995      1.973627      9.554726
     2.579760      1.934979      9.567592
     2.804922      1.912675      9.535187
     2.870946      1.939140      9.526408
     2.556665      1.954603      9.566144
     2.956085      1.977385      9.518182
     2.634947      1.906990      9.559363
     2.715596      1.903738      9.551510
     2.785019      1.913571      9.568793
     2.847260      1.917659      9.548448
     2.896214      1.930966      9.549508
     2.675645      1.921306      9.578544
     2.602888      1.919441      9.565858
     2.919531      1.947696      9.555094
     2.539602      1.975844      9.564982
     2.954352      1.970758      9.561994
     2.883273      1.935220      9.577486
     2.618332      1.908618      9.611444
     2.654870      1.908105      9.587061
     2.779869      1.902530      9.576431
     2.832089      1.924488      9.582516
     2.573924      1.954911      9.593933
     2.507704      1.984315      9.589530
     2.970421      1.965426      9.572184
     2.743903      1.904833      9.623608
     2.598494      1.921364      9.609021
     2.568439      1.939128      9.601754
     2.533300      1.956317      9.625259
     2.665328      1.896321      9.606762
     2.701750      1.895336      9.592611
     2.728061      1.904909      9.600477
     2.824596      1.907095      9.588999
     2.844002      1.912122      9.602371
     2.887327      1.924162      9.605844
     2.979454      1.982363      9.607761
     2.609638      1.898081      9.650570
     2.911863      1.937301      9.600840
     2.503766      1.976355      9.640927
     2.607979      1.919208      9.630850
     2.764698      1.891952      9.616415
     2.562151      1.939027      9.642576
     2.881598      1.913978      9.634862
     2.936158      1.957803      9.607965
     2.788664      1.903126      9.639857
     3.007716      2.000409      9.639505
     2.639502      1.897206      9.652879
     2.670657      1.896590      9.668555
     2.698425      1.881652      9.660773
     2.824706      1.901472      9.660598
     2.579465      1.919448      9.642024
     2.531537      1.946513      9.651353
     2.993906      1.968254      9.660256
     2.726380      1.894391      9.656359
     2.866537      1.912963      9.655585
     2.544458      1.944158      9.674418
     2.958830      1.963594      9.628448
     2.643631      1.885923      9.662955
     2.764585      1.888975      9.662762
     2.846177      1.912861      9.663548
     2.908108      1.932876      9.654025
     2.950276      1.952994      9.658984
     2.483651      1.981841      9.683559
     2.749250      1.896821      9.689377
     2.818346      1.890029      9.671991
     2.890785      1.921772      9.668409
     2.561409      1.933708      9.688466
     2.932663      1.938308      9.674366
     2.506885      1.976642      9.689090
     2.831611      1.903364      9.691495
     2.969855      1.961178      9.692513
     3.002158      1.971410      9.697280
     2.690452      1.883509      9.699713
     2.612639      1.893226      9.703705
     2.814651      1.890043      9.707991
     2.567367      1.914362      9.718254
     2.522836      1.952993      9.714877
     2.644164      1.885467      9.712890
     2.718286      1.872004      9.728221
     2.593442      1.898889      9.700700
     2.849179      1.896603      9.700867
     2.888193      1.920110      9.715971
     2.906067      1.932729      9.711428
     2.504513      1.959948      9.708930
     2.942710      1.942281      9.684133
     2.478224      1.978971      9.733796
     2.760376      1.882104      9.703686
     2.782747      1.892899      9.717441
     2.587634      1.895552      9.744883
     2.541254      1.931602      9.744561
     2.933105      1.942753      9.714939
     2.600167      1.885962      9.758778
     2.624275      1.880233      9.737616
     2.685860      1.881105      9.729671
     2.727783      1.882755      9.689814
     2.782149      1.880881      9.733711
     2.569659      1.920548      9.757642
     2.892241      1.910596      9.737454
     2.956873      1.944111      9.745171
     2.997833      1.978961      9.726621
     2.651793      1.875438      9.759787
     2.758030      1.878905      9.751027
     2.867554      1.899009      9.754834
     2.916624      1.920798      9.726309
     2.503300      1.962337      9.751325
     2.983429      1.962447      9.727980
     2.728546      1.872949      9.767428
     2.824421      1.890869      9.765077
     2.561384      1.909543      9.791523
[...]
POINT_DATA 9125
VECTORS U float
    -0.002082      0.000592      0.001787
    -0.001383      0.000077      0.001803
    -0.001161     -0.000023      0.001818
    -0.000783     -0.000302      0.001809
    -0.002286      0.000649      0.001806
    -0.002124      0.000350      0.001807
    -0.003391      0.000684      0.001754
    -0.002320      0.000367      0.001816
    -0.001366     -0.000075      0.001820
    -0.002944      0.000710      0.001781
    -0.002547      0.000415      0.001796
    -0.001018     -0.000340      0.001804
    -0.000625     -0.000682      0.001810
    -0.001155     -0.000269      0.001822
    -0.001868      0.000172      0.001836
    -0.001612     -0.000097      0.001820
    -0.003374      0.000642      0.001764
    -0.000341     -0.000926      0.001810
    -0.002293      0.000192      0.001809
    -0.001162     -0.000337      0.001830
    -0.002937      0.000363      0.001776
    -0.002118      0.000099      0.001814
    -0.000483     -0.000870      0.001812
    -0.003560      0.000535      0.001758
    -0.000869     -0.000575      0.001820
    -0.002735      0.000277      0.001787
    -0.001450     -0.000323      0.001816
    -0.000536     -0.000914      0.001810
    -0.000025     -0.001337      0.001795
    -0.002804      0.000259      0.001783
    -0.000382      0.000859     -0.001225
    -0.002099      0.003148     -0.000993
    -0.001079      0.001806     -0.001150
    -0.000302      0.000791     -0.001146
    -0.001421      0.002213     -0.001031
    -0.001805      0.002782     -0.000976
    -0.001334      0.002204     -0.000956
    -0.000873      0.001457     -0.001005
    -0.002145      0.003257     -0.000826
     0.000082      0.000286     -0.001123
     0.000175      0.000097     -0.001162
    -0.001733      0.002631     -0.000895
    -0.001825      0.002907     -0.000830
    -0.000574      0.001165     -0.000968
    -0.001529      0.002355     -0.000808
    -0.002521      0.003763     -0.000709
    -0.000904      0.001504     -0.000878
    -0.000227      0.000576     -0.000997
    -0.002480      0.003557     -0.000686
    -0.000114      0.000362     -0.001074
    -0.001758      0.002704     -0.000782
    -0.002277      0.003348     -0.000659
    -0.001469      0.002340     -0.000748
     0.000061      0.000240     -0.000983
    -0.001163      0.001814     -0.000762
    -0.000860      0.001525     -0.000823
    -0.002544      0.003608     -0.000556
     0.000616     -0.000443     -0.000994
    -0.002072      0.003106     -0.000619
    -0.000308      0.000807     -0.000893
    -0.001257      0.001886     -0.000671
     0.000095      0.000123     -0.000889
    -0.002612      0.003610     -0.000453
    -0.001106      0.001773     -0.000626
     0.000000      0.000250     -0.000816
    -0.002149      0.002978     -0.000520
     0.000627     -0.000424     -0.000908
     0.000730     -0.000624     -0.000957
    -0.001822      0.002471     -0.000513
    -0.001439      0.002084     -0.000503
    -0.001085      0.001634     -0.000584
    -0.000731      0.001160     -0.000667
    -0.002767      0.003578     -0.000395
    -0.002182      0.002958     -0.000440
     0.000042      0.000304     -0.000789
    -0.001911      0.002742     -0.000465
     0.000683     -0.000494     -0.000811
     0.000671     -0.000572     -0.000867
    -0.001970      0.002678     -0.000392
    -0.002440      0.003169     -0.000384
     0.000243     -0.000126     -0.000727
    -0.003123      0.003786     -0.000335
    -0.001771      0.002355     -0.000437
    -0.000966      0.001353     -0.000526
     0.000074      0.000238     -0.000644
     0.000264     -0.000239     -0.000725
    -0.001308      0.001752     -0.000444
    -0.000800      0.001135     -0.000495
    -0.002528      0.003247     -0.000275
    -0.002253      0.002864     -0.000330
     0.000171      0.000026     -0.000674
     0.000828     -0.000752     -0.000776
    -0.001692      0.002280     -0.000367
    -0.002868      0.003393     -0.000214
    -0.001199      0.001412     -0.000438
     0.000590     -0.000465     -0.000680
    -0.002064      0.002612     -0.000268
    -0.000400      0.000575     -0.000490
    -0.003535      0.003970     -0.000179
    -0.001654      0.002214     -0.000282
    -0.001475      0.001833     -0.000335
    -0.000699      0.000988     -0.000433
    -0.002503      0.002963     -0.000213
     0.000306     -0.000296     -0.000603
    -0.003198      0.003754     -0.000222
    -0.002058      0.002569     -0.000175
     0.000043      0.000037     -0.000510
     0.000414     -0.000310     -0.000521
     0.000887     -0.000859     -0.000681
    -0.001378      0.001748     -0.000272
    -0.000033      0.000231     -0.000434
    -0.002732      0.003078     -0.000122
    -0.003615      0.003922     -0.000120
    -0.002577      0.002828     -0.000074
    -0.001070      0.001213     -0.000316
    -0.003159      0.003497     -0.000128
     0.000830     -0.000745     -0.000520
     0.001308     -0.001268     -0.000675
    -0.000993      0.001197     -0.000268
    -0.000308      0.000420     -0.000347
    -0.001787      0.002142     -0.000102
    -0.001829      0.002087     -0.000142
     0.000051      0.000036     -0.000420
    -0.001318      0.001463     -0.000174
    -0.002328      0.002538     -0.000048
    -0.003203      0.003583     -0.000074
    -0.003080      0.003284     -0.000042
     0.001156     -0.001121     -0.000565
    -0.003857      0.003922      0.000022
    -0.003013      0.003165      0.000046
    -0.000220      0.000383     -0.000287
     0.000439     -0.000420     -0.000439
    -0.003424      0.003486      0.000039
     0.001383     -0.001401     -0.000615
    -0.002203      0.002436     -0.000005
    -0.001281      0.001500     -0.000115
    -0.000543      0.000612     -0.000186
     0.000283     -0.000174     -0.000324
     0.000870     -0.000757     -0.000400
    -0.001945      0.001925     -0.000042
    -0.002637      0.002852      0.000036
     0.001064     -0.001024     -0.000443
    -0.003799      0.003727      0.000019
     0.001392     -0.001429     -0.000508
     0.000609     -0.000616     -0.000332
    -0.002482      0.002539      0.000123
    -0.002057      0.002135      0.000024
    -0.000519      0.000671     -0.000140
    -0.000028      0.000001     -0.000240
    -0.003342      0.003186      0.000068
    -0.004224      0.004034      0.000090
     0.001680     -0.001634     -0.000493
    -0.001092      0.001058      0.000005
    -0.002792      0.002814      0.000126
    -0.003240      0.003230      0.000123
    -0.003805      0.003639      0.000190
    -0.001859      0.001974      0.000074
    -0.001421      0.001590      0.000006
    -0.001236      0.001279     -0.000026
     0.000029      0.000077     -0.000183
     0.000234     -0.000190     -0.000192
     0.000748     -0.000711     -0.000257
     0.001652     -0.001719     -0.000451
    -0.002530      0.002583      0.000239
     0.001004     -0.000984     -0.000317
    -0.004315      0.003942      0.000214
    -0.002729      0.002650      0.000161
    -0.000680      0.000810     -0.000013
    -0.003388      0.003233      0.000218
     0.000734     -0.000692     -0.000172
     0.001192     -0.001265     -0.000366
    -0.000483      0.000456     -0.000021
     0.001876     -0.001908     -0.000423
    -0.002251      0.002187      0.000197
    -0.001922      0.001811      0.000197
    -0.001451      0.001519      0.000180
     0.000013     -0.000041     -0.000027
    -0.003014      0.003005      0.000229
    -0.003775      0.003609      0.000268
     0.001950     -0.001884     -0.000315
    -0.001241      0.001205      0.000115
     0.000503     -0.000551     -0.000114
    -0.003682      0.003398      0.000301
     0.001479     -0.001547     -0.000357
    -0.002117      0.002127      0.000235
    -0.000717      0.000736      0.000091
     0.000205     -0.000317     -0.000074
     0.000947     -0.001009     -0.000194
     0.001414     -0.001482     -0.000262
    -0.004659      0.004049      0.000307
    -0.001045      0.000885      0.000153
     0.000020      0.000021      0.000029
     0.000775     -0.000838     -0.000127
    -0.003437      0.003157      0.000326
     0.001258     -0.001306     -0.000184
    -0.004428      0.003784      0.000307
     0.000063     -0.000179      0.000022
     0.001626     -0.001724     -0.000223
     0.002029     -0.001975     -0.000243
    -0.001627      0.001544      0.000266
    -0.002561      0.002460      0.000355
    -0.000067      0.000010      0.000108
    -0.003239      0.003028      0.000416
    -0.004097      0.003564      0.000392
    -0.002205      0.002048      0.000341
    -0.001243      0.001191      0.000315
    -0.002788      0.002722      0.000370
     0.000371     -0.000420      0.000030
     0.000721     -0.000878     -0.000021
     0.000880     -0.001062     -0.000071
    -0.004317      0.003768      0.000382
     0.001370     -0.001425     -0.000180
    -0.004835      0.003961      0.000409
    -0.000772      0.000725      0.000196
    -0.000561      0.000399      0.000167
    -0.002902      0.002726      0.000477
    -0.003757      0.003289      0.000470
     0.001204     -0.001357     -0.000106
    -0.002725      0.002545      0.000503
    -0.002404      0.002269      0.000433
    -0.001705      0.001550      0.000337
    -0.001172      0.001141      0.000208
    -0.000481      0.000388      0.000226
    -0.003387      0.002913      0.000477
     0.000857     -0.000956      0.000040
     0.001546     -0.001651     -0.000065
     0.001895     -0.001971     -0.000193
    -0.002107      0.001908      0.000452
    -0.000835      0.000664      0.000296
     0.000585     -0.000719      0.000122
     0.001139     -0.001201     -0.000025
    -0.004488      0.003659      0.000455
     0.001809     -0.001873     -0.000154
    -0.001184      0.000998      0.000377
     0.000021     -0.000212      0.000213
    -0.003429      0.002960      0.000579
    -0.002120      0.001969      0.000524
    -0.002373      0.002245      0.000514
     0.001062     -0.001216      0.000113
    -0.003711      0.003156      0.000558
    -0.004108      0.003314      0.000567
    -0.001508      0.001320      0.000472
    -0.000111     -0.000041      0.000282
    -0.004768      0.003698      0.000524
     0.001541     -0.001709     -0.000055
    -0.005006      0.003886      0.000493
    -0.000926      0.000828      0.000416
    -0.000816      0.000587      0.000376
    -0.002677      0.002295      0.000553
    -0.001872      0.001632      0.000565
    -0.004402      0.003535      0.000609
     0.001305     -0.001497      0.000056
     0.001511     -0.001686      0.000046
     0.001964     -0.002025     -0.000048
    -0.002645      0.002310      0.000630
     0.000286     -0.000516      0.000280
    -0.003235      0.002770      0.000629
     0.000665     -0.000778      0.000224
     0.001000     -0.001101      0.000202
     0.001815     -0.001970      0.000055
    -0.001465      0.001217      0.000549
    -0.000189     -0.000090      0.000389
    -0.003545      0.002948      0.000709
     0.001062     -0.001286      0.000214
    -0.003999      0.003198      0.000685
     0.001514     -0.001709      0.000153
    -0.004833      0.003613      0.000620
    -0.002123      0.001902      0.000669
    -0.001558      0.001426      0.000591
    -0.002416      0.002117      0.000661
    -0.000933      0.000679      0.000504
    -0.000213      0.000008      0.000443
    -0.002950      0.002553      0.000689
     0.000257     -0.000408      0.000363
    -0.005191      0.003809      0.000634
    -0.000403      0.000204      0.000508
    -0.004722      0.003599      0.000699
    -0.005623      0.004016      0.000700
    -0.002652      0.002174      0.000709
     0.000372     -0.000594      0.000380
    -0.004351      0.003204      0.000745
     0.001565     -0.001687      0.000242
     0.001757     -0.001983      0.000125
    -0.004960      0.003544      0.000703
    -0.000960      0.000643      0.000593
    -0.000288      0.000017      0.000540
     0.000791     -0.000978      0.000383
    -0.003818      0.003076      0.000787
    -0.004507      0.003309      0.000689
     0.001874     -0.002077      0.000194
    -0.005195      0.003755      0.000745
    -0.002684      0.002355      0.000834
    -0.002056      0.001692      0.000758
    -0.001026      0.000802      0.000645
     0.001010     -0.001227      0.000410
     0.001153     -0.001453      0.000344
    -0.002976      0.002447      0.000928
     0.000610     -0.000806      0.000455
    -0.003995      0.003177      0.000886
    -0.004635      0.003330      0.000832
    -0.001330      0.001019      0.000721
    -0.000515      0.000207      0.000643
    -0.000318      0.000136      0.000691
     0.000400     -0.000583      0.000534
    -0.003087      0.002621      0.000812
    -0.003457      0.002764      0.000922
    -0.004897      0.003470      0.000838
    -0.005246      0.003624      0.000807
     0.002059     -0.002193      0.000103
    -0.002281      0.001904      0.000844
    -0.001642      0.001405      0.000786
     0.000175     -0.000332      0.000605
     0.001773     -0.001944      0.000259
    -0.002743      0.002224      0.000942
    -0.000917      0.000695      0.000796
    -0.000750      0.000486      0.000708
     0.000865     -0.001007      0.000513
    -0.005617      0.003870      0.000840
     0.001834     -0.002144      0.000280
    -0.002555      0.002130      0.000984
    -0.002038      0.001645      0.000907
     0.000384     -0.000656      0.000615
    -0.003777      0.002805      0.001030
     0.001442     -0.001653      0.000429
    -0.001681      0.001423      0.000962
     0.000034     -0.000207      0.000719
    -0.004167      0.003084      0.000919
     0.001367     -0.001774      0.000413
     0.001748     -0.002020      0.000348
    -0.006082      0.004013      0.000889
    -0.001338      0.000999      0.000918
     0.001172     -0.001312      0.000560
     0.001602     -0.001677      0.000517
    -0.005147      0.003519      0.000914
    -0.000944      0.000580      0.000801
     0.000629     -0.000894      0.000668
    -0.004539      0.003215      0.000990
     0.001529     -0.001796      0.000474
     0.001923     -0.002072      0.000445
     0.002082     -0.002293      0.000347
    -0.003034      0.002369      0.001068
    -0.002261      0.001793      0.000999
    -0.000112     -0.000027      0.000920
    -0.003316      0.002594      0.001049
     0.000445     -0.000641      0.000717
    -0.004188      0.003006      0.001011
    -0.005738      0.003721      0.000940
    -0.001106      0.000884      0.000978
    -0.000881      0.000606      0.000879
    -0.000015     -0.000241      0.000841
     0.000255     -0.000401      0.000858
     0.001030     -0.001102      0.000708
    -0.004356      0.003182      0.001084
     0.001401     -0.001553      0.000586
    -0.005054      0.003444      0.000983
    -0.004792      0.003160      0.001047
     0.001830     -0.002169      0.000442
     0.002346     -0.002394      0.000416
    -0.001494      0.001283      0.001111
    -0.001191      0.000797      0.001004
    -0.003318      0.002480      0.001096
    -0.003975      0.002779      0.001160
    -0.004240      0.002913      0.001131
    -0.005119      0.003335      0.001085
    -0.005429      0.003635      0.001041
     0.001871     -0.002091      0.000492
    -0.006007      0.003858      0.000991
    -0.002012      0.001631      0.001081
    -0.001838      0.001421      0.001124
    -0.002810      0.002233      0.001149
    -0.000171     -0.000093      0.000931
     0.000582     -0.000857      0.000774
     0.001782     -0.002139      0.000525
    -0.006316      0.003976      0.001018
    -0.001333      0.001011      0.001078
    -0.002865      0.002292      0.001211
     0.000813     -0.000902      0.000858
     0.001183     -0.001346      0.000666
     0.001792     -0.001961      0.000616
     0.002256     -0.002410      0.000492
    -0.000455      0.000203      0.001002
    -0.003617      0.002581      0.001184
    -0.004761      0.003050      0.001127
    -0.005863      0.003654      0.001040
     0.002150     -0.002300      0.000539
    -0.002534      0.002014      0.001284
    -0.001670      0.001370      0.001179
    -0.001054      0.000853      0.001152
    -0.003191      0.002291      0.001231
     0.001291     -0.001375      0.000790
     0.001516     -0.001600      0.000735
    -0.005413      0.003426      0.001135
    -0.006411      0.003877      0.001051
    -0.000810      0.000564      0.001076
    -0.000446      0.000195      0.001086
     0.000202     -0.000331      0.001031
    -0.003452      0.002486      0.001257
    -0.004339      0.002893      0.001216
     0.001849     -0.002118      0.000622
    -0.006762      0.004074      0.001086
    -0.003670      0.002478      0.001313
     0.001494     -0.001566      0.000855
    -0.005955      0.003653      0.001092
     0.002234     -0.002414      0.000599
    -0.002181      0.001730      0.001302
    -0.001237      0.000950      0.001237
    -0.000800      0.000486      0.001201
     0.000694     -0.000912      0.000956
    -0.004220      0.002684      0.001288
     0.001432     -0.001628      0.000900
    -0.005107      0.003124      0.001189
     0.001895     -0.002158      0.000687
    -0.006491      0.003756      0.001107
    -0.002784      0.002147      0.001374
    -0.001891      0.001534      0.001347
     0.000524     -0.000672      0.001031
    -0.004529      0.002772      0.001282
     0.001665     -0.001838      0.000786
     0.002050     -0.002289      0.000795
     0.002533     -0.002546      0.000670
    -0.000960      0.000700      0.001271
     0.000029     -0.000174      0.001134
     0.000658     -0.000731      0.001106
     0.001071     -0.001183      0.000976
    -0.005436      0.003291      0.001263
    -0.005674      0.003375      0.001196
    -0.000992      0.000828      0.001327
    -0.003234      0.002346      0.001358
     0.001738     -0.001979      0.000849
    -0.006491      0.003602      0.001174
    -0.006777      0.003861      0.001156
     0.002276     -0.002498      0.000696
    -0.001487      0.001266      0.001403
    -0.000393      0.000256      0.001278
    -0.000204     -0.000001      0.001247
    -0.004265      0.002579      0.001367
    -0.005773      0.003297      0.001247
    -0.000635      0.000529      0.001349
     0.000341     -0.000489      0.001179
     0.001302     -0.001473      0.001031
    -0.004775      0.002994      0.001295
     0.001896     -0.002132      0.000894
     0.002321     -0.002544      0.000762
    -0.002565      0.001974      0.001488
    -0.003048      0.002211      0.001447
     0.000069     -0.000189      0.001265
    -0.004652      0.002728      0.001387
     0.002345     -0.002459      0.000838
    -0.002069      0.001692      0.001477
     0.000579     -0.000863      0.001156
    -0.004185      0.002516      0.001424
     0.000957     -0.001148      0.001137
    -0.005128      0.003041      0.001324
     0.001888     -0.002235      0.000908
    -0.006404      0.003355      0.001227
    -0.001771      0.001376      0.001501
    -0.001218      0.000856      0.001447
    -0.000803      0.000455      0.001398
    -0.000491      0.000289      0.001395
    -0.003242      0.002089      0.001511
    -0.000270     -0.000034      0.001322
    -0.003422      0.002274      0.001444
    -0.005900      0.003105      0.001294
    -0.002146      0.001630      0.001541
    -0.001400      0.001161      0.001462
    -0.002927      0.002007      0.001503
     0.000290     -0.000415      0.001263
     0.000496     -0.000685      0.001256
    -0.004461      0.002340      0.001470
     0.001579     -0.001854      0.001032
    -0.005512      0.002969      0.001381
    -0.006597      0.003371      0.001269
     0.002532     -0.002654      0.000822
    -0.003830      0.002186      0.001526
     0.001108     -0.001300      0.001191